9600
 Atoms. Timestep: 0
1 -0.705745 2.2222 19.5471
1 -0.749794 4.79995 19.4776
1 -0.742883 7.42877 19.5102
1 -0.716906 9.86963 19.7194
1 -0.727087 12.4048 19.7464
1 -0.721994 14.9208 19.8308
1 -0.725958 17.4561 19.8855
1 -0.664519 20.0669 19.891
1 -0.600332 22.5638 19.9417
1 -0.672477 25.1397 0.0119031
1 -0.718017 27.6893 0.174732
1 -0.652195 30.2082 0.254541
1 -0.699341 32.7194 0.29039
1 -0.709767 35.2845 0.260259
1 -0.671618 37.8062 0.116675
1 -0.69163 40.3177 0.196838
1 -0.637768 42.8645 0.172306
1 -0.619786 45.4306 0.0448007
1 -0.659042 47.8893 19.9559
1 -0.744025 50.3905 19.6427
1 3.70715 2.25796 19.1326
1 3.58694 4.82391 19.0629
1 3.61375 7.30656 19.0087
1 3.65291 9.78731 19.1193
1 3.65985 12.3679 19.2798
1 3.70664 14.9221 19.519
1 3.62038 17.4365 19.5437
1 3.66161 19.9772 19.7036
1 3.66642 22.5474 19.6676
1 3.70066 25.0688 19.8351
1 3.70506 27.6712 19.918
1 3.65458 30.1785 20.0138
1 3.76594 32.6892 20.0332
1 3.68906 35.2324 19.9098
1 3.71903 37.765 19.8773
1 3.70829 40.3084 19.8582
1 3.77561 42.8662 19.7771
1 3.65094 45.4034 19.7403
1 3.68292 47.8875 19.4213
1 3.69755 50.3693 19.3908
1 8.092 2.24001 18.6075
1 8.02438 4.77139 18.6583
1 8.01695 7.28939 18.7626
1 8.07413 9.82798 19.0234
1 8.02195 12.3581 19.1781
1 8.06051 14.8847 19.2765
1 8.09442 17.4759 19.2951
1 8.03151 19.89 19.3966
1 8.0762 22.5701 19.3798
1 8.05226 25.0856 19.2593
1 8.04212 27.6295 19.4465
1 8.07265 30.1309 19.392
1 8.10977 32.7213 19.4467
1 8.11925 35.1902 19.4358
1 8.12659 37.722 19.4051
1 8.10324 40.2418 19.4706
1 8.09886 42.7432 19.3427
1 8.0158 45.2906 19.0123
1 8.13245 47.8497 18.9384
1 8.12713 50.3552 18.7442
1 12.4909 2.31054 18.3183
1 12.5107 4.85093 18.3892
1 12.4555 7.35391 18.5421
1 12.3948 9.83047 18.6689
1 12.4106 12.3774 18.8854
1 12.4123 14.9173 18.8813
1 12.4786 17.4304 18.936
1 12.4108 20.0004 18.7591
1 12.3498 22.4914 18.6272
1 12.3852 25.0875 18.7051
1 12.3187 27.6138 18.6913
1 12.407 30.1487 18.9445
1 12.4318 32.6731 18.9597
1 12.4751 35.2083 19.08
1 12.501 37.8061 19.2555
1 12.4186 40.3143 19.1615
1 12.5164 42.8142 18.837
1 12.4181 45.3025 18.6255
1 12.4487 47.8633 18.5239
1 12.4627 50.3758 18.4525
1 16.8921 2.29232 18.1504
1 16.8762 4.82584 18.1205
1 16.8178 7.38699 18.2007
1 16.8448 9.88617 18.3112
1 16.8297 12.4413 18.2779
1 16.8023 14.9587 18.1946
1 16.7978 17.4691 18.1036
1 16.776 19.9843 17.9773
1 16.7537 22.5541 17.8694
1 16.7435 25.0332 18.018
1 16.7587 27.5542 18.1582
1 16.7498 30.0895 18.2899
1 16.7611 32.6439 18.4829
1 16.8205 35.181 18.5696
1 16.8184 37.7789 18.5468
1 16.8401 40.2794 18.5067
1 16.7966 42.8163 18.3206
1 16.8496 45.3319 18.1674
1 16.7639 47.8455 18.0599
1 16.737 50.4131 17.9765
1 21.2214 2.27209 17.4739
1 21.2584 4.85493 17.5279
1 21.2481 7.39804 17.6714
1 21.1436 9.90493 17.7516
1 21.2088 12.4191 17.6828
1 21.1797 14.8784 17.584
1 21.1592 17.4664 17.5015
1 21.1737 20.0219 17.385
1 21.1699 22.6167 17.3324
1 21.1012 25.1336 17.5287
1 21.1054 27.5817 17.6436
1 21.0788 30.1668 17.668
1 21.0768 32.6558 17.7873
1 21.0802 35.2057 17.981
1 21.1378 37.7476 17.9685
1 21.1333 40.323 17.8306
1 21.1884 42.8369 17.8384
1 21.1644 45.3866 17.7201
1 21.1428 47.8661 17.5869
1 21.1663 50.3733 17.6012
1 25.5168 2.24467 16.8287
1 25.4912 4.83273 16.835
1 25.476 7.32637 17.1773
1 25.5616 9.84721 17.3042
1 25.6039 12.3351 17.2356
1 25.5509 14.9291 17.0614
1 25.5713 17.5478 17.106
1 25.5431 20.011 17.1339
1 25.5458 22.5856 17.0589
1 25.5089 25.0573 17.2607
1 25.5163 27.5604 17.4694
1 25.5285 30.1037 17.6288
1 25.4216 32.6394 17.8111
1 25.4947 35.1713 17.7839
1 25.5209 37.6417 17.6698
1 25.5112 40.2028 17.4397
1 25.5178 42.7905 17.4611
1 25.515 45.2832 17.3172
1 25.583 47.764 17.1001
1 25.5348 50.3961 17.021
1 29.8889 2.21586 16.2706
1 29.9663 4.73559 16.6363
1 29.9769 7.29638 16.8028
1 29.9709 9.82193 16.9343
1 29.9734 12.3794 17.0626
1 30.0208 14.9287 16.9683
1 29.9046 17.3968 17.0241
1 29.9346 19.9506 17.3026
1 29.9214 22.4729 17.268
1 29.903 24.9777 17.1863
1 29.9239 27.5311 17.367
1 29.9387 30.0725 17.5741
1 29.8925 32.6019 17.5248
1 29.9318 35.0989 17.5005
1 29.9321 37.6462 17.4331
1 29.8976 40.1684 17.1437
1 29.8725 42.7403 16.9332
1 29.8428 45.2915 16.8094
1 29.8793 47.7706 16.5411
1 29.8737 50.3625 16.381
1 34.2353 2.21177 16.3771
1 34.2831 4.72189 16.6613
1 34.3446 7.29236 16.8543
1 34.3643 9.8487 17.0385
1 34.3703 12.4226 17.099
1 34.3437 15.0187 17.0418
1 34.3725 17.49 17.202
1 34.3655 20.001 17.1181
1 34.298 22.5512 17.2065
1 34.2881 25.0885 17.3112
1 34.3492 27.6184 17.2968
1 34.3014 30.1638 17.3895
1 34.3124 32.6134 17.3396
1 34.289 35.1009 17.3043
1 34.2605 37.7586 17.0485
1 34.2706 40.2424 16.8471
1 34.3146 42.7525 16.6961
1 34.3059 45.2685 16.529
1 34.265 47.8263 16.2553
1 34.2835 50.3602 16.1558
1 38.6726 2.2774 16.114
1 38.6928 4.81247 16.2877
1 38.6821 7.37681 16.4633
1 38.7362 9.90196 16.6537
1 38.7018 12.4045 16.9392
1 38.7393 14.9272 17.185
1 38.6718 17.5088 17.2291
1 38.6546 20.0199 17.1351
1 38.672 22.5059 17.2793
1 38.7875 25.0794 17.3353
1 38.6803 27.531 17.2386
1 38.7269 30.1121 17.3544
1 38.7479 32.6028 17.2937
1 38.6915 35.1192 17.0756
1 38.6154 37.7075 16.725
1 38.7196 40.2993 16.8579
1 38.7081 42.8078 16.6646
1 38.5738 45.2754 16.4546
1 38.643 47.8267 16.2625
1 38.6341 50.3945 16.0874
1 42.9896 2.21179 16.1357
1 42.9971 4.76827 16.3411
1 43.1053 7.26975 16.4798
1 43.0797 9.83224 16.5796
1 43.0604 12.3385 16.7622
1 43.0539 14.8839 16.7909
1 43.0636 17.412 16.9806
1 43.0622 19.9709 16.9122
1 43.1356 22.5074 17.0895
1 43.0285 25.0173 17.151
1 43.1629 27.5232 17.2389
1 43.1391 30.1 17.2505
1 43.0374 32.6947 17.259
1 43.0573 35.2091 17.119
1 43.0823 37.7156 17.0578
1 43.0933 40.2794 16.9254
1 43.0797 42.8423 16.743
1 43.0497 45.2573 16.4216
1 43.0405 47.8048 16.2502
1 43.026 50.3725 16.0783
1 47.4377 2.19204 16.4933
1 47.4744 4.74999 16.4644
1 47.5073 7.28647 16.3089
1 47.4755 9.80703 16.3555
1 47.453 12.3377 16.4398
1 47.4649 14.9069 16.5378
1 47.4544 17.4839 16.5585
1 47.4281 20.0103 16.4896
1 47.4493 22.5339 16.7538
1 47.4318 25.0759 17.0004
1 47.4645 27.5824 17.1797
1 47.4736 30.1026 17.1734
1 47.4373 32.6048 17.1545
1 47.4445 35.1487 17.0885
1 47.5124 37.7337 17.0192
1 47.4745 40.2657 16.8151
1 47.4586 42.7786 16.7858
1 47.4357 45.3396 16.6421
1 47.4672 47.8596 16.4735
1 47.4093 50.3613 16.3652
1 51.8672 2.26762 16.3862
1 51.8485 4.72617 16.4309
1 51.8731 7.2502 16.2761
1 51.7959 9.79761 16.1959
1 51.7586 12.3601 16.3463
1 51.8454 14.9026 16.5457
1 51.7305 17.4607 16.6048
1 51.8315 20.0076 16.6564
1 51.8194 22.5311 16.7545
1 51.8155 25.0835 16.8952
1 51.8225 27.6007 17.0574
1 51.873 30.0767 17.1056
1 51.7787 32.6633 17.1252
1 51.7893 35.1383 16.9553
1 51.8443 37.6666 16.8832
1 51.8647 40.1641 16.6547
1 51.8024 42.7064 16.5034
1 51.8037 45.3006 16.4604
1 51.8228 47.8561 16.4329
1 51.8065 50.3788 16.4499
1 56.2724 2.224 16.076
1 56.2779 4.76066 15.9799
1 56.2132 7.31173 16.157
1 56.1936 9.88969 16.1807
1 56.1698 12.3592 16.3064
1 56.2115 14.8802 16.6686
1 56.1509 17.4478 16.6884
1 56.1527 19.9553 16.8652
1 56.252 22.4677 16.8935
1 56.2097 25.0361 17.0484
1 56.1063 27.5415 16.9802
1 56.2013 30.1195 17.0955
1 56.1681 32.694 17.0543
1 56.2085 35.1906 16.7828
1 56.1744 37.7822 16.6091
1 56.2623 40.2699 16.4404
1 56.2662 42.7596 16.3104
1 56.2421 45.3259 16.2937
1 56.1702 47.8425 16.186
1 56.2459 50.382 16.1142
1 60.5952 2.18365 15.9689
1 60.5572 4.751 16.1296
1 60.5492 7.33617 16.2435
1 60.6236 9.92588 16.2365
1 60.5598 12.414 16.2631
1 60.6297 14.9893 16.487
1 60.5716 17.4695 16.7215
1 60.4883 20.0634 16.9107
1 60.5526 22.5621 16.8405
1 60.609 25.0909 16.774
1 60.6411 27.5863 16.7802
1 60.6048 30.1112 16.7613
1 60.52 32.6253 16.6065
1 60.6079 35.1572 16.3625
1 60.6515 37.7005 16.4012
1 60.5959 40.2639 16.3127
1 60.6261 42.7777 16.1023
1 60.677 45.3094 16.0994
1 60.62 47.8033 15.9929
1 60.6022 50.3215 16.0683
1 64.9323 2.25886 16.1018
1 64.9345 4.74432 16.3072
1 64.9145 7.31961 16.4493
1 64.9145 9.84987 16.311
1 64.8927 12.4138 16.2508
1 64.8885 14.932 16.3557
1 64.9359 17.4294 16.5018
1 64.9767 20.0348 16.5165
1 64.9277 22.4856 16.6294
1 64.9877 25.0632 16.5426
1 65 27.634 16.5096
1 64.9167 30.0738 16.347
1 64.9672 32.6076 16.2317
1 65.0174 35.1984 16.2147
1 64.9929 37.722 16.0319
1 65.0031 40.2723 15.9546
1 65.0924 42.8383 15.9787
1 65.0047 45.3322 15.9818
1 65.0371 47.8404 16.0782
1 64.9649 50.416 16.0047
1 69.348 2.31065 16.275
1 69.2927 4.85152 16.1412
1 69.3213 7.38097 16.2412
1 69.3127 9.87714 16.2299
1 69.276 12.4202 16.1682
1 69.2715 14.8968 16.1185
1 69.3072 17.4914 16.3206
1 69.336 20.0023 16.4667
1 69.3827 22.5411 16.5127
1 69.2815 25.0647 16.2991
1 69.3796 27.5928 16.2668
1 69.3154 30.0739 16.2352
1 69.4234 32.6083 16.2648
1 69.3046 35.1535 16.2793
1 69.3664 37.7197 16.039
1 69.3787 40.2467 15.8828
1 69.3583 42.748 15.8414
1 69.4499 45.2967 15.8603
1 69.3455 47.8159 15.8069
1 69.3729 50.3551 15.9675
1 73.6848 2.28088 16.0003
1 73.7249 4.82787 15.9393
1 73.7136 7.3594 15.8564
1 73.7242 9.87681 15.9631
1 73.6995 12.395 16.0263
1 73.6717 14.9011 15.953
1 73.7141 17.4461 16.1331
1 73.7888 20.0296 16.2035
1 73.7462 22.51 16.2323
1 73.7323 25.0296 15.9128
1 73.7132 27.5703 16.0659
1 73.707 30.0865 16.239
1 73.7063 32.5268 16.2238
1 73.6985 35.1164 16.0488
1 73.7242 37.6966 15.9352
1 73.816 40.2802 15.8878
1 73.8116 42.7826 15.7406
1 73.7865 45.2968 15.6922
1 73.8542 47.8399 15.6398
1 73.745 50.3535 15.7273
1 78.112 2.25157 15.3273
1 78.1612 4.79354 15.4909
1 78.136 7.26851 15.6337
1 78.1156 9.81763 15.7482
1 78.1387 12.3333 15.5904
1 78.0803 14.9489 15.7916
1 78.211 17.4261 15.7879
1 78.1597 19.9264 15.9811
1 78.1666 22.5141 15.9149
1 78.1628 25.0317 15.9027
1 78.1767 27.526 16.0453
1 78.1397 30.0591 15.9966
1 78.1222 32.5994 15.9221
1 78.098 35.1343 15.915
1 78.1565 37.7157 15.8645
1 78.1326 40.2468 15.7367
1 78.1596 42.8219 15.5632
1 78.2097 45.3939 15.5431
1 78.1114 47.9258 15.3658
1 78.055 50.4506 15.2679
1 82.528 2.17628 15.4367
1 82.4476 4.67749 15.5651
1 82.5118 7.2493 15.7185
1 82.4684 9.80264 15.7203
1 82.4609 12.3457 15.7382
1 82.5471 14.8832 15.8615
1 82.5924 17.4168 15.822
1 82.492 19.9163 15.8815
1 82.6449 22.4401 15.8822
1 82.5812 24.9924 15.8815
1 82.4768 27.49 15.8439
1 82.5711 30.0781 15.8621
1 82.5363 32.5979 15.8682
1 82.4772 35.1066 15.7472
1 82.4709 37.6741 15.5137
1 82.5395 40.1918 15.4081
1 82.552 42.7396 15.2413
1 82.5243 45.3298 15.2147
1 82.5711 47.8225 15.359
1 82.5575 50.3656 15.3621
1 87.0258 2.1318 15.5193
1 86.9157 4.77175 15.6258
1 86.844 7.32229 15.8381
1 86.8529 9.87146 15.9032
1 86.8314 12.3235 15.9945
1 86.9072 14.9005 16.0151
1 86.8751 17.4336 16.1133
1 87.0093 19.9847 16.0424
1 86.9128 22.4962 15.9856
1 86.9449 25.0623 16.0254
1 86.9422 27.5055 16.0327
1 86.893 29.9946 16.0374
1 86.9356 32.6702 16.1201
1 86.9485 35.0963 15.9315
1 86.9166 37.6309 15.65
1 86.9258 40.1818 15.4697
1 86.9666 42.7698 15.4766
1 86.9735 45.2797 15.3189
1 86.9388 47.8184 15.4426
1 86.9798 50.3584 15.447
1 91.3303 2.20726 15.6582
1 91.316 4.7886 15.7077
1 91.2175 7.34972 15.9344
1 91.2781 9.78412 16.1917
1 91.2578 12.3137 16.0868
1 91.2424 14.8466 16.1005
1 91.3011 17.3747 16.1138
1 91.3368 19.9441 16.1719
1 91.3212 22.4746 16.0781
1 91.3141 25.0106 15.9959
1 91.3499 27.5202 16.0817
1 91.3113 30.083 16.1051
1 91.268 32.6697 16.0228
1 91.2721 35.2314 15.9991
1 91.306 37.7498 15.945
1 91.4085 40.2408 15.6758
1 91.3818 42.771 15.6788
1 91.3085 45.2732 15.6631
1 91.3702 47.8119 15.5657
1 91.3611 50.3303 15.5976
1 95.7162 2.22194 15.8249
1 95.6907 4.72619 16.1085
1 95.6754 7.30606 16.0692
1 95.6552 9.81849 16.1154
1 95.6559 12.3463 16.1324
1 95.6413 14.8335 15.9965
1 95.6699 17.3419 16.0664
1 95.7312 19.8484 16.023
1 95.7196 22.4284 16.1039
1 95.6851 25.0238 16.1569
1 95.6949 27.5945 16.1185
1 95.6721 30.1122 16.1155
1 95.6736 32.6904 16.0988
1 95.6673 35.2148 16.0226
1 95.7454 37.6961 16.1943
1 95.7373 40.2585 16.1006
1 95.7142 42.8151 16.0294
1 95.7417 45.3112 15.8984
1 95.6695 47.8018 15.7942
1 95.711 50.3124 15.6829
1 100.145 2.25562 16.2539
1 100.113 4.72718 16.1748
1 100.071 7.21617 16.0582
1 100.093 9.83002 16.0977
1 100.064 12.2785 16.0176
1 100.066 14.8046 15.9413
1 100.042 17.2986 15.8639
1 100.096 19.8618 15.6439
1 100.068 22.3795 15.6945
1 100.078 24.9674 15.8493
1 100.082 27.5252 15.9032
1 100.089 30.1009 15.9612
1 100.03 32.612 15.9122
1 100.063 35.1419 16.0662
1 100.057 37.7159 16.3146
1 100.049 40.223 16.352
1 100.115 42.7929 16.4367
1 100.085 45.3147 16.7533
1 100.052 47.8593 16.6036
1 100.07 50.3622 16.3856
1 104.431 2.27116 16.8398
1 104.442 4.83526 16.7417
1 104.417 7.32726 16.6031
1 104.493 9.89043 16.4046
1 104.471 12.3161 16.1455
1 104.445 14.858 15.9929
1 104.514 17.3706 15.9181
1 104.491 19.9714 15.7275
1 104.486 22.5181 15.7083
1 104.406 25.0705 15.9339
1 104.393 27.6109 15.9982
1 104.438 30.1229 15.9406
1 104.466 32.6416 16.0366
1 104.477 35.1363 16.1778
1 104.503 37.7028 16.2396
1 104.507 40.2386 16.5055
1 104.458 42.7301 16.9171
1 104.477 45.311 17.0175
1 104.476 47.8617 17.1553
1 104.481 50.4011 16.9366
1 108.828 2.25392 16.9769
1 108.873 4.79044 16.8734
1 108.885 7.32243 16.7199
1 108.844 9.83922 16.4698
1 108.84 12.4219 16.4744
1 108.89 14.8975 16.4909
1 108.828 17.4904 16.53
1 108.853 19.991 16.2442
1 108.81 22.507 16.1907
1 108.814 25.012 16.0946
1 108.857 27.5561 16.1094
1 108.842 30.117 16.2388
1 108.816 32.646 16.4747
1 108.85 35.1256 16.514
1 108.849 37.6239 16.7115
1 108.856 40.1685 16.8048
1 108.813 42.7814 17.0545
1 108.841 45.3277 17.292
1 108.827 47.8787 17.2476
1 108.848 50.3981 17.2099
1 113.239 2.2493 17.2576
1 113.27 4.76754 17.266
1 113.204 7.30981 17.1351
1 113.188 9.8755 16.9956
1 113.249 12.3778 16.8314
1 113.281 14.9547 16.7729
1 113.228 17.5137 16.7719
1 113.254 20.0461 16.5514
1 113.229 22.5777 16.6327
1 113.146 25.0071 16.6354
1 113.21 27.5953 16.6038
1 113.257 30.0671 16.5432
1 113.231 32.6003 16.6711
1 113.204 35.1607 16.8832
1 113.262 37.671 17.1663
1 113.172 40.2208 17.2615
1 113.2 42.7593 17.3039
1 113.192 45.2926 17.2572
1 113.247 47.8736 17.3572
1 113.27 50.3458 17.2311
1 117.616 2.22258 17.3595
1 117.574 4.81466 17.2204
1 117.552 7.39031 17.4169
1 117.591 9.97696 17.3822
1 117.577 12.5125 17.3211
1 117.692 14.9747 17.1843
1 117.659 17.4946 16.919
1 117.65 20.0729 16.9167
1 117.644 22.541 16.9047
1 117.689 25.063 16.9639
1 117.616 27.557 17.2114
1 117.631 30.1812 17.1793
1 117.596 32.676 17.1812
1 117.594 35.1763 17.5032
1 117.619 37.7653 17.4656
1 117.602 40.3059 17.5284
1 117.575 42.7292 17.6849
1 117.542 45.3134 17.5909
1 117.609 47.8324 17.5098
1 117.616 50.3659 17.4064
1 121.952 2.23326 17.479
1 121.973 4.74799 17.5027
1 121.938 7.31736 17.4971
1 122.05 9.85188 17.4084
1 122.02 12.3188 17.423
1 122.032 14.8881 17.2246
1 121.994 17.4477 16.8292
1 122.013 20.025 16.79
1 122.085 22.5525 16.7611
1 122.092 25.1271 17.0186
1 122.025 27.6164 17.2389
1 121.939 30.1051 17.3465
1 122.003 32.6006 17.4878
1 122.037 35.191 17.7022
1 122.018 37.7574 17.7146
1 121.98 40.3135 17.9203
1 122.006 42.8394 17.8259
1 122.057 45.3821 17.7819
1 122.046 47.8459 17.6289
1 122.029 50.382 17.49
1 126.494 2.28483 17.3701
1 126.411 4.83298 17.4425
1 126.367 7.31477 17.3546
1 126.386 9.83851 17.3333
1 126.463 12.3902 17.1771
1 126.473 14.9256 17.0038
1 126.484 17.5225 16.9205
1 126.413 20.0407 16.9046
1 126.406 22.5791 16.8311
1 126.404 25.0764 17.0983
1 126.308 27.6414 17.3344
1 126.398 30.1671 17.4415
1 126.481 32.682 17.6543
1 126.425 35.1884 17.7852
1 126.424 37.7896 17.8633
1 126.43 40.3021 17.927
1 126.41 42.7909 17.9479
1 126.448 45.3774 17.6894
1 126.462 47.93 17.6061
1 126.561 50.4505 17.641
1 130.946 2.28234 17.499
1 130.88 4.84403 17.4725
1 130.841 7.40339 17.4176
1 130.819 9.90813 17.308
1 130.865 12.4383 17.3037
1 130.859 14.9984 17.2191
1 130.859 17.5563 17.1557
1 130.831 20.0693 17.2005
1 130.827 22.5678 17.1715
1 130.757 25.0909 17.4359
1 130.769 27.6411 17.5287
1 130.742 30.1226 17.7296
1 130.803 32.6532 17.8995
1 130.818 35.2646 17.9464
1 130.849 37.7731 17.8984
1 130.85 40.3239 17.7565
1 130.863 42.8403 17.7256
1 130.863 45.3516 17.8566
1 130.857 47.8392 17.6606
1 130.937 50.4461 17.5813
1 135.355 2.30116 17.475
1 135.301 4.83212 17.4868
1 135.256 7.37214 17.4326
1 135.191 9.88017 17.3797
1 135.192 12.4153 17.406
1 135.232 14.9092 17.5193
1 135.23 17.4352 17.5296
1 135.267 20.0019 17.5594
1 135.191 22.5676 17.5925
1 135.187 25.1167 17.7236
1 135.225 27.6055 17.7295
1 135.193 30.1554 17.8536
1 135.169 32.6721 18.0216
1 135.211 35.1932 18.0213
1 135.261 37.7749 18.0815
1 135.266 40.3021 17.8021
1 135.244 42.8209 17.6142
1 135.252 45.2808 17.7149
1 135.259 47.834 17.6961
1 135.264 50.3621 17.5381
1 139.648 2.18598 17.6956
1 139.619 4.76337 17.6502
1 139.702 7.33622 17.5846
1 139.62 9.80772 17.4984
1 139.64 12.3333 17.4863
1 139.601 14.8965 17.6178
1 139.65 17.445 17.5518
1 139.65 19.9802 17.7126
1 139.606 22.4953 17.7574
1 139.543 25.0099 17.8266
1 139.6 27.5593 17.9369
1 139.621 30.1464 17.9001
1 139.639 32.6656 18.0093
1 139.634 35.1717 17.8399
1 139.691 37.6827 17.6934
1 139.599 40.253 17.5233
1 139.642 42.7527 17.5104
1 139.746 45.3049 17.5733
1 139.661 47.8062 17.6274
1 139.664 50.3831 17.5769
1 144.036 2.23821 17.6323
1 144.025 4.76597 17.8048
1 144.039 7.33605 17.623
1 144.014 9.83115 17.5081
1 143.988 12.3056 17.5719
1 144.074 14.9226 17.6809
1 143.998 17.3856 17.5881
1 144.018 19.9591 17.681
1 143.958 22.4583 17.8753
1 144.028 25.0986 17.9513
1 144.012 27.5131 17.806
1 143.958 30.0716 17.8487
1 144.047 32.601 17.9073
1 144.034 35.1153 17.7826
1 144.019 37.6803 17.4179
1 144.091 40.1463 17.2373
1 144.066 42.7047 17.0662
1 143.987 45.2657 17.3527
1 144.055 47.7759 17.5977
1 143.975 50.3619 17.5633
1 148.415 2.28152 17.5626
1 148.447 4.80309 17.5299
1 148.423 7.36049 17.5753
1 148.474 9.87682 17.601
1 148.394 12.3644 17.6077
1 148.388 14.9064 17.4296
1 148.404 17.4126 17.4284
1 148.449 19.9694 17.6018
1 148.341 22.514 17.6767
1 148.34 25.0481 17.7304
1 148.39 27.5824 17.8046
1 148.385 30.0891 17.7098
1 148.397 32.6337 17.674
1 148.456 35.2596 17.6985
1 148.478 37.7013 17.6056
1 148.437 40.2758 17.2951
1 148.435 42.7873 17.2697
1 148.447 45.3051 17.3215
1 148.416 47.8355 17.4749
1 148.469 50.3747 17.58
1 152.88 2.37933 17.3315
1 152.835 4.86167 17.3856
1 152.804 7.37971 17.2553
1 152.828 9.96696 17.1508
1 152.769 12.4745 16.9646
1 152.833 14.9227 16.9583
1 152.85 17.4359 17.0681
1 152.795 20.0357 17.2142
1 152.724 22.5356 17.1005
1 152.757 25.1089 17.1958
1 152.811 27.6199 17.331
1 152.796 30.1648 17.6029
1 152.811 32.6539 17.6043
1 152.792 35.2413 17.6432
1 152.905 37.7924 17.4542
1 152.873 40.3253 17.3859
1 152.862 42.8393 17.345
1 152.839 45.3413 17.2088
1 152.886 47.8436 17.3256
1 152.875 -0.14411 17.4803
1 157.185 2.32629 17.1874
1 157.211 4.90199 17.006
1 157.188 7.36258 16.8537
1 157.085 9.91993 16.6805
1 157.186 12.4413 16.4888
1 157.157 14.9808 16.4056
1 157.19 17.5849 16.6374
1 157.228 20.0796 16.9746
1 157.17 22.5408 17.1813
1 157.205 25.0433 17.372
1 157.234 27.6071 17.4976
1 157.298 30.1552 17.6647
1 157.139 32.7018 17.7248
1 157.159 35.2022 17.6464
1 157.254 37.8323 17.5884
1 157.262 40.3903 17.4631
1 157.211 42.8748 17.234
1 157.226 45.4263 17.1236
1 157.249 47.9048 17.0509
1 157.195 50.4293 17.1557
1 161.549 2.32014 17.0276
1 161.52 4.81955 16.9498
1 161.567 7.43068 16.599
1 161.545 9.98806 16.5667
1 161.552 12.4831 16.4306
1 161.523 15.0257 16.5157
1 161.469 17.5408 16.7425
1 161.586 20.0289 17.0378
1 161.557 22.5028 17.3688
1 161.536 25.0738 17.5927
1 161.571 27.6192 17.6892
1 161.642 30.2563 17.8273
1 161.617 32.7932 17.6468
1 161.536 35.319 17.6794
1 161.663 37.8102 17.5369
1 161.607 40.3246 17.1535
1 161.653 42.8887 17.0429
1 161.61 45.3316 17.0117
1 161.601 47.914 17.0273
1 161.607 50.4337 17.0273
1 165.999 2.35034 16.8973
1 165.963 4.92128 16.9863
1 165.925 7.43103 16.7483
1 165.906 10.0041 16.6165
1 165.979 12.5398 16.5205
1 165.914 14.9869 16.5903
1 165.939 17.5271 16.8594
1 165.967 20.0203 17.2402
1 165.983 22.5282 17.3946
1 165.975 25.0857 17.6096
1 165.916 27.6518 17.6857
1 165.954 30.2413 17.6668
1 165.951 32.7612 17.5788
1 165.911 35.3423 17.6413
1 165.986 37.8532 17.4659
1 165.995 40.3949 17.4452
1 165.946 42.9033 17.3867
1 166.007 45.4441 17.1247
1 165.976 47.9764 16.8689
1 165.996 50.443 16.906
1 170.313 2.43578 16.7381
1 170.315 5.01355 16.6708
1 170.392 7.47543 16.5367
1 170.385 10.0078 16.6101
1 170.381 12.477 16.6669
1 170.392 15.0149 16.8187
1 170.303 17.4893 16.9723
1 170.392 20.1146 17.0878
1 170.354 22.5982 17.3001
1 170.331 25.1637 17.356
1 170.304 27.7027 17.4847
1 170.317 30.1948 17.45
1 170.32 32.7919 17.411
1 170.325 35.2824 17.498
1 170.294 37.8139 17.5703
1 170.311 40.3472 17.5475
1 170.295 42.9625 17.2604
1 170.432 45.4804 17.1408
1 170.413 48.0359 16.8761
1 170.34 -0.128795 16.7975
1 174.645 2.35111 16.7345
1 174.634 4.94622 16.6601
1 174.712 7.45125 16.6093
1 174.784 10.0082 16.6346
1 174.837 12.4932 16.7564
1 174.816 14.996 17.041
1 174.744 17.5169 17.18
1 174.653 20.079 17.2543
1 174.741 22.6678 17.3416
1 174.712 25.1705 17.3905
1 174.719 27.6935 17.2496
1 174.752 30.219 17.256
1 174.707 32.7543 17.4271
1 174.734 35.2915 17.3457
1 174.714 37.7858 17.4868
1 174.659 40.356 17.5116
1 174.659 42.9519 17.4744
1 174.768 45.4801 17.2865
1 174.735 47.9974 17.159
1 174.693 -0.156099 16.9826
1 179.1 2.39366 17.1837
1 179.036 4.87413 16.9963
1 179.127 7.44134 16.7899
1 179.134 9.93735 16.9424
1 179.152 12.4943 17.1292
1 179.176 15.0112 17.1426
1 179.097 17.5803 17.4603
1 179.103 20.1396 17.5306
1 179.11 22.6455 17.555
1 179.093 25.1709 17.3951
1 179.098 27.6777 17.3225
1 179.102 30.2345 17.2169
1 179.106 32.7627 17.3843
1 179.05 35.3153 17.4719
1 179.095 37.8614 17.6286
1 178.984 40.3654 17.8028
1 179.047 42.8103 17.6144
1 179.089 45.3832 17.6018
1 179.108 47.9415 17.3601
1 179.11 -0.14495 17.2399
1 183.527 2.33024 17.4265
1 183.528 4.87313 17.4126
1 183.483 7.41527 17.4944
1 183.434 9.93406 17.55
1 183.437 12.4974 17.522
1 183.447 15.0474 17.672
1 183.458 17.5219 17.7111
1 183.455 20.1087 17.8092
1 183.481 22.7073 17.7509
1 183.438 25.2148 17.72
1 183.509 27.7435 17.6973
1 183.437 30.2709 17.7658
1 183.455 32.7942 17.8793
1 183.476 35.2884 17.8649
1 183.446 37.8799 18.0295
1 183.444 40.4234 17.9887
1 183.426 42.9225 17.7709
1 183.482 45.4713 17.7193
1 183.454 47.9849 17.4705
1 183.496 50.4432 17.404
1 187.939 2.33875 17.8676
1 187.976 4.836 17.8313
1 187.838 7.44807 17.997
1 187.872 9.92605 17.9835
1 187.876 12.4709 18.0755
1 187.862 15.0145 17.9772
1 187.864 17.5751 18.1004
1 187.841 20.1419 18.0112
1 187.875 22.7216 17.8576
1 187.874 25.2196 17.9024
1 187.843 27.7523 18.1359
1 187.88 30.3126 18.2927
1 187.866 32.8116 18.384
1 187.822 35.3319 18.5492
1 187.826 37.8774 18.5845
1 187.817 40.3819 18.5062
1 187.853 42.8201 18.3091
1 187.841 45.396 17.9882
1 187.876 47.941 18.0173
1 187.883 -0.166895 17.9717
1 192.222 2.32862 18.6391
1 192.24 4.84772 18.6206
1 192.265 7.40224 18.6331
1 192.262 9.95162 18.5646
1 192.326 12.4796 18.3324
1 192.25 15.0443 18.3132
1 192.312 17.6374 18.1281
1 192.304 20.1351 18.1145
1 192.31 22.6252 18.036
1 192.256 25.1345 18.2156
1 192.267 27.6719 18.4552
1 192.329 30.2224 18.6382
1 192.265 32.7717 18.7002
1 192.258 35.2778 18.7875
1 192.27 37.8382 18.6455
1 192.218 40.3552 18.6169
1 192.223 42.8261 18.5273
1 192.208 45.3635 18.5173
1 192.208 47.8516 18.5163
1 192.285 50.4017 18.4887
1 196.602 2.33881 18.9373
1 196.612 4.88085 18.9273
1 196.614 7.38871 18.8861
1 196.674 9.92025 18.794
1 196.633 12.4734 18.7057
1 196.648 15.0475 18.7223
1 196.659 17.5426 18.7852
1 196.736 20.0913 18.5058
1 196.687 22.6356 18.3507
1 196.701 25.164 18.5756
1 196.65 27.7029 18.6449
1 196.715 30.1652 18.9556
1 196.672 32.7169 18.8819
1 196.673 35.2533 18.8115
1 196.602 37.8156 18.9001
1 196.613 40.3461 19.0088
1 196.627 42.8923 19.009
1 196.625 45.3702 19.2009
1 196.59 47.9113 19.0975
1 196.568 -0.198323 19.1366
1 200.894 2.29677 19.6081
1 200.971 4.8006 19.4312
1 200.962 7.35536 19.4614
1 200.97 9.9031 19.4247
1 200.915 12.4613 19.548
1 200.933 15.0555 19.5504
1 201.015 17.5799 19.4147
1 201.048 20.1122 19.2191
1 201.114 22.6542 19.095
1 201.113 25.1967 19.0835
1 201.021 27.7388 19.1464
1 201.018 30.2183 19.2118
1 201.025 32.8101 19.0987
1 201.008 35.3293 19.1001
1 201.079 37.7594 19.323
1 200.949 40.2734 19.4583
1 201.017 42.8848 19.648
1 200.982 45.3602 19.7867
1 200.943 47.8915 19.8486
1 200.891 50.4214 19.7258
1 205.338 2.36872 19.8937
1 205.389 4.88733 19.7973
1 205.334 7.37813 19.9514
1 205.29 9.90091 -0.0746267
1 205.274 12.4547 -0.0468142
1 205.253 15.0299 0.0426474
1 205.346 17.5909 -0.0653979
1 205.297 20.1402 19.7752
1 205.374 22.628 19.5153
1 205.41 25.1393 19.6127
1 205.421 27.6805 19.6602
1 205.393 30.2355 19.5109
1 205.393 32.7696 19.4925
1 205.427 35.3089 19.4576
1 205.404 37.7644 19.5209
1 205.357 40.3277 19.828
1 205.366 42.8572 -0.0673929
1 205.415 45.3979 -0.00826619
1 205.346 47.9506 -0.00582489
1 205.308 -0.202818 20.0041
1 209.707 2.34345 0.399817
1 209.672 4.85827 0.362064
1 209.802 7.34034 0.267765
1 209.684 9.9211 0.461506
1 209.633 12.4394 0.471833
1 209.648 14.9824 0.354785
1 209.703 17.5075 0.20227
1 209.707 20.0862 20.0487
1 209.815 22.5682 19.9803
1 209.808 25.1281 19.9961
1 209.798 27.6823 19.9827
1 209.766 30.1921 19.8324
1 209.795 32.7543 19.7611
1 209.776 35.2393 19.7449
1 209.75 37.8143 19.984
1 209.783 40.3582 19.9585
1 209.785 42.8409 20.0605
1 209.758 45.3382 -0.0260677
1 209.722 47.8696 0.117985
1 209.73 -0.2063 0.451581
1 214.174 2.38281 0.635003
1 214.16 4.819 0.736701
1 214.048 7.30279 0.710257
1 214.076 9.81272 0.592975
1 214.052 12.4179 0.551166
1 214.07 14.9862 0.578123
1 214.158 17.4934 0.445667
1 214.105 19.9324 0.189438
1 214.148 22.5369 0.258904
1 214.112 25.096 0.306176
1 214.132 27.7002 0.315552
1 214.231 30.1868 0.0748188
1 214.178 32.6786 -0.0201293
1 214.173 35.2375 0.257068
1 214.117 37.7206 0.180935
1 214.152 40.2802 -0.0106489
1 214.227 42.7901 -0.0167654
1 214.124 45.3635 0.088861
1 214.11 47.9116 0.244365
1 214.102 -0.182731 0.420287
1 218.525 2.36088 0.764827
1 218.537 4.87713 0.848098
1 218.466 7.43112 0.863941
1 218.515 9.9204 0.806707
1 218.473 12.4223 0.696494
1 218.535 14.9693 0.812155
1 218.488 17.5611 0.723467
1 218.556 20.0967 0.697828
1 218.529 22.5858 0.586965
1 218.559 25.1028 0.718161
1 218.555 27.6401 0.698423
1 218.619 30.1351 0.467091
1 218.571 32.6419 0.423157
1 218.525 35.2281 0.435651
1 218.511 37.7378 0.438635
1 218.511 40.2559 0.354769
1 218.512 42.8612 0.201189
1 218.534 45.463 0.419068
1 218.468 48.0004 0.518234
1 218.501 -0.171941 0.700825
1 222.884 2.29274 0.954211
1 222.967 4.92179 0.858212
1 222.907 7.45228 0.849793
1 222.911 9.83328 0.940479
1 222.932 12.4071 0.842218
1 222.873 14.9722 1.02394
1 222.902 17.4764 1.13008
1 222.923 20.0483 1.14324
1 222.975 22.5965 1.05817
1 222.936 25.1686 0.959155
1 222.966 27.6633 1.08019
1 222.894 30.1637 1.01094
1 222.939 32.6804 0.772479
1 222.921 35.2641 0.858762
1 222.922 37.7645 0.672394
1 222.919 40.2988 0.759796
1 222.919 42.8342 0.88066
1 222.914 45.3817 0.927183
1 222.981 47.9238 0.951845
1 222.837 50.4214 1.03626
1 227.256 2.31552 0.986438
1 227.339 4.89098 0.867424
1 227.338 7.33379 1.02479
1 227.371 9.91512 1.1068
1 227.302 12.415 1.14122
1 227.289 14.9282 1.15709
1 227.279 17.4878 1.19742
1 227.326 20.0061 1.1108
1 227.379 22.5939 1.12062
1 227.358 25.1329 1.06484
1 227.308 27.6721 0.982619
1 227.36 30.2078 1.24499
1 227.357 32.6815 1.33873
1 227.351 35.19 1.33217
1 227.361 37.7405 1.29933
1 227.402 40.2651 1.34819
1 227.358 42.8952 1.42758
1 227.333 45.3841 1.38439
1 227.25 47.9236 1.19339
1 227.336 -0.169443 0.906007
1 231.657 2.30123 1.127
1 231.715 4.84568 0.923477
1 231.734 7.32108 1.04854
1 231.711 9.90928 1.01777
1 231.652 12.4107 1.18767
1 231.615 14.9516 1.34486
1 231.654 17.5242 1.27662
1 231.714 20.0034 1.1264
1 231.749 22.5883 1.33221
1 231.758 25.1235 1.49244
1 231.764 27.6281 1.47896
1 231.691 30.1632 1.57628
1 231.683 32.6949 1.79279
1 231.672 35.2252 1.88939
1 231.693 37.8023 2.02838
1 231.778 40.281 1.76114
1 231.717 42.7669 1.7027
1 231.72 45.3403 1.77234
1 231.712 47.8732 1.38151
1 231.7 50.4349 1.18303
1 236.158 2.19501 1.28448
1 236.144 4.77519 1.32091
1 236.168 7.35554 1.42052
1 236.07 9.88438 1.19501
1 236.076 12.451 1.0493
1 236.068 14.9383 1.18707
1 236.037 17.4857 1.25058
1 236.102 19.9884 1.22736
1 236.097 22.5233 1.43681
1 236.107 25.0593 1.53051
1 236.069 27.6078 1.75079
1 236.047 30.1853 1.80342
1 236.059 32.6345 1.8667
1 236.06 35.185 1.97693
1 236.006 37.7377 2.14768
1 236.062 40.2875 2.10636
1 236.074 42.8341 2.11215
1 236.079 45.2885 1.89996
1 236.072 47.8499 1.63547
1 236.038 50.4091 1.50304
1 240.484 2.27588 1.51951
1 240.469 4.77645 1.51187
1 240.459 7.34109 1.47644
1 240.512 9.87462 1.35192
1 240.383 12.3827 1.18037
1 240.4 14.9963 1.15317
1 240.436 17.4554 1.25378
1 240.477 20.0107 1.33192
1 240.402 22.5281 1.60692
1 240.401 25.0661 1.84597
1 240.426 27.5695 1.6938
1 240.483 30.2062 1.68763
1 240.457 32.6474 1.90687
1 240.465 35.2167 1.96788
1 240.359 37.7112 2.10876
1 240.432 40.3201 2.18305
1 240.416 42.8203 2.06819
1 240.41 45.3699 1.93787
1 240.51 47.8715 1.66477
1 240.462 50.3751 1.55795
1 244.864 2.31095 1.7798
1 244.824 4.78031 1.98806
1 244.877 7.35082 1.76487
1 244.81 9.92378 1.59175
1 244.806 12.4754 1.43014
1 244.857 14.9406 1.35931
1 244.858 17.5034 1.34818
1 244.871 20.0435 1.5289
1 244.849 22.5255 1.71828
1 244.863 25.1502 1.91019
1 244.829 27.6322 1.99594
1 244.811 30.0611 1.88193
1 244.791 32.6425 1.84891
1 244.792 35.2253 1.89654
1 244.723 37.7771 1.98801
1 244.864 40.3095 2.14505
1 244.866 42.808 2.19465
1 244.78 45.3383 2.02576
1 244.831 47.8581 1.93923
1 244.875 50.4397 1.87814
1 249.272 2.32949 2.12072
1 249.231 4.85218 2.13109
1 249.293 7.36735 2.13999
1 249.233 9.88198 2.04439
1 249.209 12.4224 1.85963
1 249.224 14.8525 1.42588
1 249.275 17.4103 1.46124
1 249.321 19.9828 1.60236
1 249.277 22.5499 1.74632
1 249.221 25.0337 1.98414
1 249.225 27.538 1.77904
1 249.218 30.1088 1.86304
1 249.178 32.6878 1.88234
1 249.119 35.1562 2.04142
1 249.159 37.6595 2.16075
1 249.199 40.2566 2.25603
1 249.266 42.824 2.23105
1 249.229 45.3147 2.16897
1 249.228 47.9073 2.09582