ITEM: TIMESTEP
100000
ITEM: NUMBER OF ATOMS
9600
ITEM: BOX BOUNDS pp pp pp
-2.1438640748508533e+00 5.2433588067646133e+02
-2.0629360998407265e-01 5.0454290893884036e+01
-8.2110181951319916e-02 2.0082110181950494e+01
ITEM: ATOMS id type x y z
2481 1 19.1474 1.25297 19.8275
4881 2 18.4252 2.5164 19.8266
4900 2 18.3695 -0.0131618 19.9809
4920 2 22.7875 -0.055355 0.274084
101 1 21.3717 2.48652 20.0239
4901 2 22.7993 2.49914 0.102192
7301 2 20.6134 1.23455 19.9533
120 1 21.3171 -0.0220477 -0.0191671
121 1 25.6526 2.46164 0.479859
140 1 25.7172 -0.0413616 0.346029
7321 2 24.9264 1.19728 0.299264
2501 1 23.4679 1.21985 0.201888
2521 1 27.8729 1.19979 0.487933
7341 2 29.3111 1.20464 0.449661
4921 2 27.1298 2.51222 0.556028
4940 2 27.1345 -0.0219796 0.281927
141 1 30.0213 2.46046 0.481302
4941 2 31.5501 2.43963 0.489468
2541 1 32.2671 1.18393 0.573598
160 1 30.1109 -0.0496583 0.483801
4960 2 31.539 -0.113479 0.524268
7361 2 33.7537 1.25867 0.697416
161 1 34.5138 2.52531 0.750655
180 1 34.5567 0.00133248 0.703738
7381 2 38.1774 1.25562 1.0231
2561 1 36.7432 1.20079 0.924894
4961 2 35.9985 2.47625 0.877849
181 1 38.866 2.56034 1.11305
200 1 38.9077 -0.0114798 1.20699
4980 2 36.013 0.0174125 0.867203
4981 2 40.3633 2.51125 1.09888
2581 1 41.1181 1.22949 1.39359
5000 2 40.3988 -0.0460416 1.32488
7401 2 42.5378 1.26734 1.60941
201 1 43.3047 2.5293 1.67277
5001 2 44.7494 2.46814 1.86535
220 1 43.2749 -0.0406088 1.79974
5020 2 44.7387 -0.0305883 1.94663
7421 2 46.9494 1.20123 2.03543
2601 1 45.4646 1.19235 1.95091
221 1 47.6837 2.43268 2.13175
240 1 47.6602 -0.0832239 2.17012
2621 1 49.8263 1.18487 2.15669
7441 2 51.2734 1.16441 2.13579
5021 2 49.1248 2.47797 2.16259
5040 2 49.1333 -0.0394482 2.39541
241 1 52.048 2.4445 2.22231
2641 1 54.2126 1.18036 2.32352
5041 2 53.5015 2.46062 2.30112
5060 2 53.4743 -0.0646275 2.32284
260 1 52.0153 -0.0911633 2.27139
261 1 56.379 2.43981 2.51316
7461 2 55.6314 1.23548 2.44348
280 1 56.3564 -0.00294034 2.44746
5080 2 57.8016 -0.121697 2.5913
5061 2 57.8021 2.45199 2.6725
7481 2 60.0231 1.14461 2.87473
281 1 60.7025 2.45782 3.0316
2661 1 58.568 1.13723 2.67293
300 1 60.8044 -0.0664514 2.97301
5081 2 62.1999 2.46272 3.14827
481 1 104.678 2.20685 2.52995
5281 2 106.145 2.23275 2.57975
2881 1 106.855 1.00173 2.50182
2901 1 111.2 0.994878 2.10009
5301 2 110.48 2.27184 2.20032
5320 2 110.521 50.3636 2.31777
7701 2 108.304 0.969793 2.38973
501 1 109.021 2.27678 2.3199
520 1 109.057 50.3894 2.38808
521 1 113.389 2.25655 2.05681
7721 2 112.698 1.0193 1.98815
540 1 113.416 50.3673 2.06202
7741 2 117.063 0.921767 1.8424
2921 1 115.633 0.987982 2.07262
5340 2 114.892 50.4144 2.14678
5321 2 114.868 2.21041 2.02761
2941 1 119.984 0.970318 1.85861
5341 2 119.28 2.24192 1.74873
541 1 117.837 2.17977 1.87528
560 1 117.731 50.2827 1.86584
5360 2 119.204 50.3471 1.81791
561 1 122.191 2.26287 1.8235
5361 2 123.662 2.26221 1.66147
7761 2 121.481 1.00409 1.95623
580 1 122.193 50.4097 1.80034
5380 2 123.658 50.3775 1.73432
2961 1 124.404 0.997937 1.65917
581 1 126.553 2.2698 1.38146
7781 2 125.863 1.03821 1.52397
600 1 126.606 50.4214 1.36475
5381 2 128.062 2.25106 1.20013
2981 1 128.749 1.00562 0.897841
7801 2 130.171 1.02045 0.786175
5400 2 128.009 50.4254 1.12385
3001 1 133.088 1.0463 0.499679
5401 2 132.347 2.30773 0.576463
601 1 130.927 2.33299 0.790292
5420 2 132.38 50.4019 0.547439
620 1 130.91 50.4278 0.783788
7821 2 134.52 1.01526 0.476994
621 1 135.221 2.27831 0.292682
640 1 135.231 50.3899 0.294379
5421 2 136.762 2.26445 0.151461
3021 1 137.462 0.978077 0.131024
7841 2 138.945 1.00043 0.165479
641 1 139.704 2.26301 0.0502915
5440 2 136.699 50.392 0.125512
5861 2 233.165 2.15569 19.2704
1081 1 236.157 2.29336 19.4525
8281 2 235.482 0.940277 19.4264
3481 1 238.42 0.980581 19.7863
5881 2 237.651 2.27465 19.7498
8301 2 239.832 0.905742 19.9451
3501 1 242.665 0.938147 0.0662012
5901 2 241.975 2.208 0.0524148
1101 1 240.536 2.17549 20.0048
8321 2 244.154 0.957878 0.202131
1121 1 244.891 2.19616 0.307232
5921 2 246.376 2.20579 0.347681
3521 1 247.128 0.979397 0.358085
8341 2 248.599 0.986039 0.217645
1141 1 249.341 2.24286 0.127031
5941 2 250.796 2.21118 0.133095
8361 2 252.949 0.984102 0.208307
3541 1 251.562 0.94717 0.228672
1161 1 253.712 2.25094 0.301636
5961 2 255.226 2.22533 0.312333
3561 1 255.976 0.999137 0.228699
8381 2 257.476 0.995973 0.277131
1181 1 258.182 2.29247 0.267442
3581 1 260.473 0.934094 0.325881
8401 2 261.901 0.93257 0.404079
5981 2 259.666 2.21452 0.415579
1201 1 262.615 2.23268 0.295103
6001 2 264.043 2.28657 0.141261
9141 2 424.149 1.09301 0.684034
6741 2 426.336 2.30797 0.624391
1941 1 424.908 2.34245 0.784209
6760 2 426.342 -0.166943 0.988313
1960 1 424.828 -0.213876 0.869562
9161 2 428.483 1.04486 0.892086
1961 1 429.254 2.33294 0.833832
4341 1 427.04 1.10501 0.797342
1980 1 429.205 -0.166697 1.18086
4361 1 431.438 1.06291 1.30052
6761 2 430.73 2.30493 1.00661
6780 2 430.682 -0.18939 1.32754
9181 2 432.919 1.06768 1.49096
1981 1 433.645 2.34017 1.55591
6781 2 435.071 2.32463 1.73579
4381 1 435.786 1.0626 1.79408
2000 1 433.608 -0.197662 1.74353
6800 2 435.026 50.3868 1.88923
9201 2 437.206 1.07809 1.92879
2001 1 437.912 2.33478 2.11451
2020 1 437.992 -0.138158 2.09647
4401 1 440.173 1.10541 2.27709
6801 2 439.397 2.34984 2.25808
9221 2 441.637 1.08299 2.27688
2021 1 442.318 2.35051 2.4267
6821 2 443.754 2.34939 2.53794
4421 1 444.54 1.08894 2.52723
2040 1 442.321 -0.200741 2.32032
6840 2 443.823 -0.12096 2.34018
2041 1 446.701 2.29406 2.98692
9241 2 445.967 1.04626 2.88719
6841 2 448.197 2.28835 3.13784
2060 1 446.722 50.4436 2.90385
6860 2 448.209 50.4388 3.18012
4441 1 448.958 1.04054 3.19198
9261 2 450.427 1.03721 3.13947
2061 1 451.174 2.25203 3.10981
2080 1 451.131 50.421 3.1395
4461 1 453.429 0.94969 3.03059
6861 2 452.62 2.26095 3.04715
9281 2 454.827 0.984055 3.08692
6880 2 452.634 50.3859 3.03894
2081 1 455.572 2.28219 3.21592
2100 1 455.572 50.3916 3.09363
6881 2 456.995 2.27831 3.13251
4481 1 457.706 1.02663 3.12339
6900 2 457.032 50.3697 3.02195
9301 2 459.211 1.09376 2.98447
6941 2 470.184 2.34266 2.41975
2161 1 473.09 2.35297 2.05834
4541 1 470.946 1.11568 2.3941
9361 2 472.346 1.11422 2.15362
2180 1 473.138 -0.147689 2.1088
6961 2 474.604 2.40445 2.03159
4561 1 475.348 1.16005 2.02214
9381 2 476.797 1.19105 2.0046
6980 2 474.62 -0.0876803 2.043
2181 1 477.526 2.44982 1.86312
4581 1 479.726 1.14543 1.56809
6981 2 479.017 2.4515 1.65701
2201 1 481.826 2.45117 1.25753
9401 2 481.159 1.14826 1.54007
7020 2 483.312 -0.147058 1.48641
7001 2 483.277 2.4087 1.16789
2221 1 486.189 2.40448 1.12598
4601 1 484.09 1.09427 1.38894
9421 2 485.522 1.1162 1.27845
7021 2 487.668 2.42127 0.978274
4621 1 488.437 1.22656 1.15371
7040 2 487.686 -0.0377349 1.12426
7041 2 492.077 2.44698 0.66196
2241 1 490.609 2.51466 0.741291
9441 2 489.89 1.23702 0.976483
7060 2 492.082 -0.050648 0.854258
4641 1 492.854 1.22588 0.784876
9461 2 494.32 1.19162 0.666017
2261 1 495.046 2.44629 0.44114
2280 1 495.039 -0.0772778 0.425984
4661 1 497.213 1.23174 0.342509
7061 2 496.511 2.4877 0.380606
9481 2 498.695 1.25233 0.0751031
7080 2 496.501 -0.0736396 0.265796
2281 1 499.392 2.52504 20.0638
4681 1 501.572 1.24628 19.9385
7081 2 500.862 2.51567 19.8028
9501 2 502.996 1.18436 19.8189
2301 1 503.734 2.50493 19.7835
2482 1 19.1497 3.77707 19.8869
4882 2 18.3859 5.03228 19.8925
102 1 21.2724 5.03233 -0.0404897
7302 2 20.6163 3.72577 20.0143
4902 2 22.7903 5.05637 0.0266978
122 1 25.6891 5.02069 0.539338
2502 1 23.5566 3.76547 0.170129
7322 2 24.9996 3.7461 0.351869
4922 2 27.165 5.02055 0.655694
2522 1 27.8849 3.77161 0.607609
7342 2 29.3189 3.69651 0.564603
142 1 30.0211 5.01226 0.708425
4942 2 31.5008 5.02951 0.816685
2542 1 32.2858 3.78166 0.641735
7362 2 33.7451 3.79773 0.739988
162 1 34.4251 5.05031 0.962599
7382 2 38.1321 3.81264 1.05941
2562 1 36.6921 3.78229 0.938379
4962 2 35.9192 5.06295 1.11307
182 1 38.9002 5.09881 1.22173
2582 1 41.0627 3.78732 1.41482
4982 2 40.3752 5.03395 1.27119
7402 2 42.5108 3.78107 1.62488
202 1 43.2624 5.04151 1.7132
5002 2 44.7729 5.06811 1.90335
2602 1 45.4288 3.77155 1.96617
7422 2 46.9622 3.75644 2.02613
222 1 47.6968 5.00793 2.04875
2622 1 49.8614 3.75969 2.14247
7442 2 51.3148 3.73948 2.14242
5022 2 49.1832 5.03423 2.06777
242 1 52.0914 5.00072 2.28088
5042 2 53.5407 4.94733 2.32855
2642 1 54.2319 3.69577 2.40007
262 1 56.3663 5.00311 2.76233
7462 2 55.6874 3.67565 2.58524
5062 2 57.8474 5.0125 2.75955
2662 1 58.5196 3.68296 2.82667
7482 2 60.0063 3.7492 3.00416
482 1 104.624 4.82055 2.8028
7682 2 103.932 3.52296 2.60864
5282 2 106.127 4.80195 2.74764
2882 1 106.874 3.55013 2.64533
2902 1 111.237 3.5415 2.21181
7702 2 108.326 3.55782 2.51233
5302 2 110.496 4.79692 2.3449
502 1 109.071 4.81258 2.44268
7722 2 112.648 3.5207 2.22519
522 1 113.424 4.75628 2.33118
2922 1 115.628 3.55168 2.00782
7742 2 117.046 3.4261 1.97504
5322 2 114.849 4.8172 2.12526
5342 2 119.285 4.74564 2.14554
2942 1 120.031 3.52513 1.93794
542 1 117.778 4.69039 2.15422
562 1 122.182 4.80327 1.94254
7762 2 121.47 3.53672 1.967
5362 2 123.668 4.80107 1.75757
2962 1 124.38 3.51171 1.62901
582 1 126.585 4.792 1.49117
7782 2 125.847 3.5417 1.51081
5382 2 127.989 4.82974 1.21256
2982 1 128.752 3.55146 1.06056
7802 2 130.204 3.54691 0.809776
3002 1 133.006 3.60748 0.392235
602 1 130.933 4.80139 0.847511
5402 2 132.347 4.85803 0.536476
622 1 135.295 4.76891 0.297318
7822 2 134.481 3.55607 0.316195
7842 2 139.013 3.56585 0.0385138
5422 2 136.834 4.80121 0.245095
3022 1 137.508 3.55132 0.130652
642 1 139.697 4.81885 -0.0147405
5442 2 141.146 4.84511 19.9484
3462 1 233.919 3.43435 19.3362
1082 1 236.105 4.72181 19.5532
8282 2 235.374 3.47846 19.3638
5882 2 237.629 4.77522 19.5869
3482 1 238.335 3.47524 19.7366
8302 2 239.845 3.42898 19.9009
3483 1 238.327 6.01247 19.6993
8303 2 239.798 5.94438 19.8952
3502 1 242.713 3.43899 0.22755
3503 1 242.719 5.95075 0.133395
1102 1 240.483 4.70211 20.0674
5902 2 241.996 4.68297 0.0564001
1122 1 244.926 4.75598 0.388041
8322 2 244.204 3.43134 0.432694
8323 2 244.153 5.98842 0.263895
5922 2 246.371 4.74064 0.320659
8342 2 248.542 3.47461 0.104845
1142 1 249.265 4.75577 0.0269654
8343 2 248.604 6.0013 0.0999344
3522 1 247.113 3.47948 0.359537
3523 1 247.128 5.97941 0.17774
8362 2 252.976 3.49759 0.239527
3542 1 251.52 3.4893 0.168877
5942 2 250.779 4.71701 0.153911
8363 2 253.027 6.06405 0.348683
3543 1 251.525 5.98235 0.23587
1162 1 253.735 4.81198 0.37438
3562 1 255.947 3.51722 0.316882
5962 2 255.2 4.77679 0.459169
3563 1 255.896 6.07788 0.387627
8382 2 257.429 3.50558 0.280634
1182 1 258.162 4.79673 0.345112
8383 2 257.393 6.03484 0.382859
5982 2 259.604 4.78154 0.443023
1202 1 262.56 4.83452 0.0890318
8402 2 261.923 3.49968 0.300636
3582 1 260.412 3.47811 0.334651
8403 2 261.751 6.00743 0.123656
3583 1 260.309 6.04711 0.251307
6002 2 264.007 4.88546 0.0535714
3602 1 264.763 3.6145 -0.0110427
3603 1 264.69 6.154 0.221927
8422 2 266.23 3.56938 0.0642414
1222 1 266.948 4.81104 0.271814
6022 2 268.403 4.85935 0.240684
8423 2 266.19 6.12683 0.238214
3623 1 269.155 6.07462 0.22308
8443 2 270.617 6.07699 0.156847
1942 1 424.916 4.80935 0.755288
9142 2 424.142 3.62234 0.816266
6742 2 426.379 4.84498 0.647197
4342 1 427.109 3.60131 0.654904
9162 2 428.544 3.58394 0.726124
1962 1 429.316 4.91556 0.766607
4362 1 431.492 3.62756 1.05416
6762 2 430.786 4.86747 0.805522
9182 2 432.932 3.61008 1.39456
6782 2 435.116 4.83872 1.44296
1982 1 433.617 4.86022 1.21573
4382 1 435.758 3.60411 1.78412
9202 2 437.235 3.61313 1.996
2002 1 438.022 4.83362 2.00707
9222 2 441.619 3.62282 2.43101
4402 1 440.17 3.60662 2.3101
6802 2 439.481 4.87771 2.20989
2022 1 442.392 4.8541 2.42886
6822 2 443.793 4.92011 2.59249
4422 1 444.501 3.60241 2.75524
2042 1 446.734 4.8439 2.81737
9242 2 445.974 3.59715 2.81873
6842 2 448.169 4.78671 2.97698
9262 2 450.376 3.51569 3.08131
4442 1 448.938 3.54795 3.02404
2062 1 451.129 4.80194 3.15242
4462 1 453.35 3.48639 3.09269
6862 2 452.628 4.7705 3.12687
9282 2 454.833 3.52847 3.14651
9283 2 454.859 6.10624 3.16337
2082 1 455.572 4.85031 3.25756
6882 2 457.023 4.79733 3.28606
4482 1 457.709 3.60471 3.27925
2102 1 459.943 4.89836 3.07755
9302 2 459.232 3.62452 3.18915
4502 1 462.16 3.65142 2.89484
6902 2 461.437 4.89315 2.98111
2122 1 464.36 4.92168 2.84482
6922 2 465.807 4.88516 2.7938
6942 2 470.111 4.90822 2.25262
9362 2 472.363 3.62944 2.1725
4542 1 470.924 3.61427 2.31406
2162 1 473.065 4.90068 2.03386
4562 1 475.289 3.6869 1.94392
6962 2 474.518 4.91841 1.94551
9382 2 476.732 3.6432 1.8798
2182 1 477.467 4.93471 1.5947
4582 1 479.69 3.70629 1.35227
6982 2 478.903 4.96183 1.35927
4583 1 479.658 6.22899 1.35196
2202 1 481.814 4.98501 1.05862
9402 2 481.101 3.72586 1.11278
2222 1 486.27 4.95267 0.937192
7002 2 483.218 4.95513 0.796045
9422 2 485.384 3.67668 1.1065
4602 1 483.952 3.67443 0.971863
7022 2 487.719 4.98878 0.864654
4622 1 488.393 3.70249 0.805449
4623 1 488.459 6.27177 0.706531
9442 2 489.847 3.75802 0.761616
7042 2 492.111 4.94863 0.568528
2242 1 490.654 4.96736 0.626042
4642 1 492.807 3.70879 0.474644
4643 1 492.826 6.19124 0.329654
2262 1 495.021 4.97204 0.301739
9462 2 494.276 3.69466 0.338565
9463 2 494.278 6.22622 0.351537
4662 1 497.213 3.68566 0.123803
9482 2 498.686 3.70182 0.0180362
7062 2 496.509 4.92869 0.214461
2282 1 499.38 5.00674 -0.0645532
7082 2 500.806 5.0541 19.9176
4682 1 501.543 3.81029 19.7892
2302 1 503.764 5.06019 19.7998
7102 2 505.183 5.03203 19.8751
9502 2 503.018 3.77509 19.7401
4702 1 505.918 3.75848 19.6742
9523 2 507.507 6.35467 19.7296
2483 1 19.0708 6.27483 20.0556
83 1 16.8891 7.5359 20.0482
2484 1 19.1043 8.78039 0.213365
4883 2 18.3118 7.49489 -0.041852
7303 2 20.5635 6.29169 -0.0155436
7304 2 20.5365 8.7936 0.472008
103 1 21.2673 7.54517 0.26734
4903 2 22.7421 7.60384 0.265955
123 1 25.6756 7.56409 0.672277
7323 2 24.9407 6.27683 0.591035
2503 1 23.4683 6.29665 0.383848
2504 1 23.4439 8.79269 0.579001
7324 2 24.8825 8.80417 0.633587
2523 1 27.8544 6.24517 0.765228
7343 2 29.2896 6.25191 0.780084
4923 2 27.1578 7.51231 0.822917
2524 1 27.9284 8.79661 0.880932
7344 2 29.4068 8.81252 0.900379
2543 1 32.2446 6.27445 0.963876
2544 1 32.3437 8.8248 1.05569
4943 2 31.5641 7.56782 0.95437
143 1 30.07 7.52864 0.845456
7363 2 33.7502 6.31057 1.13969
7364 2 33.7683 8.86803 1.10098
163 1 34.4819 7.60975 1.2272
7383 2 38.1445 6.34909 1.22983
2563 1 36.6224 6.34134 1.19474
7384 2 38.1457 8.9263 1.33341
4963 2 35.93 7.68066 1.2486
2564 1 36.6955 8.89734 1.15439
183 1 38.8666 7.6617 1.38233
2583 1 41.082 6.30388 1.4859
2584 1 41.0517 8.83633 1.66725
4983 2 40.3327 7.63386 1.4665
7403 2 42.5744 6.32623 1.70931
203 1 43.2776 7.63308 1.879
5003 2 44.7515 7.5698 2.10171
7404 2 42.5071 8.9037 1.82464
2603 1 45.4858 6.30423 2.01228
7423 2 46.9389 6.25466 2.03968
223 1 47.7071 7.54245 2.09906
7424 2 46.9699 8.82836 2.09519
2604 1 45.483 8.83426 2.16262
7443 2 51.3585 6.25882 2.35047
2623 1 49.8533 6.27797 2.15114
7444 2 51.3092 8.78077 2.2663
2624 1 49.8501 8.83699 2.29291
5023 2 49.0881 7.57286 2.19932
2643 1 54.1947 6.23609 2.51811
5043 2 53.4815 7.51575 2.52706
2644 1 54.2266 8.82664 2.53295
243 1 52.071 7.5258 2.35232
7463 2 55.6268 6.24247 2.76483
263 1 56.4058 7.54386 2.75722
7464 2 55.6284 8.79628 2.64015
5063 2 57.8674 7.55877 2.91217
2664 1 58.5872 8.79606 2.94383
2823 1 93.7831 6.02646 3.38988
7663 2 99.5806 5.97209 3.22061
7664 2 99.6505 8.59577 3.36465
463 1 100.343 7.27235 3.25507
7683 2 103.92 6.10755 2.90749
2863 1 102.496 6.0291 2.90386
7684 2 104.02 8.57811 3.06754
2864 1 102.555 8.57353 3.11599
483 1 104.682 7.321 2.97162
2883 1 106.889 6.03958 2.67723
5283 2 106.166 7.33699 2.86476
2884 1 106.86 8.64143 2.94757
7703 2 108.377 6.04119 2.75313
2903 1 111.249 6.03096 2.48962
7704 2 108.356 8.62422 2.73064
503 1 109.072 7.32727 2.7479
5303 2 110.543 7.30507 2.59832
2904 1 111.24 8.56653 2.45887
523 1 113.467 7.34059 2.44495
7724 2 112.758 8.57153 2.44068
7723 2 112.757 6.03458 2.47858
7743 2 117.078 6.03984 2.24838
2923 1 115.623 6.04532 2.29022
7744 2 117.09 8.57483 2.34821
2924 1 115.596 8.59717 2.29634
5323 2 114.915 7.38128 2.27675
2943 1 120.018 6.01812 2.13664
2944 1 119.976 8.51957 2.23903
5343 2 119.317 7.28292 2.23785
543 1 117.829 7.2925 2.26439
7763 2 121.474 6.07106 1.99352
563 1 122.237 7.35061 1.9132
5363 2 123.65 7.28264 1.86007
7764 2 121.434 8.58358 1.96795
2963 1 124.405 6.02666 1.72844
7783 2 125.868 6.06768 1.61359
2964 1 124.317 8.58877 1.79339
583 1 126.525 7.36187 1.52241
7784 2 125.836 8.55313 1.76741
7803 2 130.202 6.07733 1.11631
2983 1 128.694 6.12718 1.18207
5383 2 127.994 7.37926 1.38618
2984 1 128.744 8.59151 1.44437
7804 2 130.19 8.61209 1.2536
3003 1 133.097 6.0802 0.609203
603 1 130.907 7.33521 1.01428
3004 1 133.107 8.67876 0.687061
5403 2 132.404 7.38793 0.78334
7823 2 134.53 6.0962 0.318611
623 1 135.239 7.37181 0.301997
7824 2 134.552 8.65281 0.442493
7843 2 138.945 6.11626 0.0158838
3023 1 137.526 6.07511 0.123492
5423 2 136.673 7.2725 0.0914824
7844 2 138.915 8.63228 -0.00597493
3024 1 137.394 8.60105 -0.0599166
643 1 139.671 7.37896 0.0377105
3043 1 141.916 6.05703 20.0007
3044 1 141.858 8.58213 19.9696
7864 2 143.298 8.57839 19.8441
1083 1 236.143 7.25286 19.6754
8284 2 235.436 8.5401 19.6953
3484 1 238.417 8.54476 19.9159
8304 2 239.848 8.49517 -0.052643
5883 2 237.601 7.27756 19.6524
1103 1 240.569 7.22225 -0.0235995
5903 2 242.018 7.26823 0.113347
3504 1 242.702 8.49741 0.211372
1123 1 244.863 7.26697 0.370022
5923 2 246.411 7.28595 0.172217
8324 2 244.158 8.5612 0.402146
1143 1 249.321 7.29 0.157169
8344 2 248.605 8.51991 -0.0271542
3524 1 247.153 8.55822 0.114308
8364 2 253.021 8.55069 0.345459
3544 1 251.582 8.4852 0.31529
5943 2 250.797 7.28057 0.284188
1163 1 253.731 7.31801 0.28186
3564 1 255.909 8.6157 0.319599
5963 2 255.177 7.32943 0.285324
8384 2 257.361 8.56273 0.293695
1183 1 258.149 7.3106 0.286416
5983 2 259.579 7.33185 0.208327
1203 1 262.497 7.31567 0.267809
8404 2 261.782 8.54672 0.344263
3584 1 260.327 8.58947 0.374536
3604 1 264.704 8.66935 0.342812
6003 2 263.912 7.36409 0.375542
8424 2 266.183 8.63621 0.237802
1223 1 266.918 7.38839 0.338539
6023 2 268.4 7.3651 0.281149
1243 1 271.365 7.34416 0.289947
3624 1 269.157 8.56412 0.311795
8444 2 270.658 8.61422 0.364058
4324 1 422.729 8.70433 0.438646
6723 2 421.978 7.37188 0.361808
9143 2 424.213 6.09792 0.736207
9144 2 424.221 8.68319 0.636011
1943 1 424.865 7.39194 0.69034
6743 2 426.372 7.40386 0.771515
9163 2 428.596 6.14251 0.752949
4343 1 427.139 6.17055 0.693942
4344 1 427.129 8.6671 0.718314
9164 2 428.582 8.76402 0.919089
1963 1 429.343 7.4822 0.825229
4363 1 431.496 6.20462 0.982682
4364 1 431.5 8.69686 0.903481
6763 2 430.804 7.45067 0.865609
9184 2 432.96 8.7157 1.03193
9183 2 432.942 6.16405 1.09371
4383 1 435.845 6.07326 1.37624
1983 1 433.71 7.44614 1.04562
6783 2 435.161 7.40287 1.20982
4384 1 435.856 8.64568 1.29806
9203 2 437.298 6.12627 1.73953
9204 2 437.355 8.66198 1.49666
2003 1 438.04 7.35958 1.7928
9223 2 441.667 6.07525 2.19257
4403 1 440.214 6.11321 2.05069
9224 2 441.635 8.65056 2.08352
4404 1 440.235 8.68609 1.96047
6803 2 439.535 7.37802 1.85934
4423 1 444.473 6.17184 2.57727
2023 1 442.34 7.36465 2.23713
6823 2 443.812 7.42141 2.428
4424 1 444.513 8.69151 2.48355
9243 2 445.961 6.07616 2.81075
9244 2 445.997 8.65282 2.68183
2043 1 446.665 7.27646 2.89009
6843 2 448.158 7.34843 3.15689
4443 1 448.889 6.09029 3.08834
9263 2 450.367 6.09988 3.12136
4444 1 448.885 8.5613 3.18982
2063 1 451.118 7.37751 3.15168
9264 2 450.381 8.65885 3.11054
4463 1 453.395 6.06872 3.14606
4464 1 453.305 8.63568 3.20795
6863 2 452.59 7.31835 3.10032
9284 2 454.75 8.64146 3.22373
4483 1 457.743 6.07802 3.26471
2083 1 455.533 7.39148 3.26699
6883 2 457.018 7.35957 3.43826
4484 1 457.699 8.64237 3.2338
9303 2 459.233 6.09463 3.19139
2103 1 459.93 7.43488 3.16583
9304 2 459.171 8.63864 3.12337
4503 1 462.116 6.14038 3.03669
9323 2 463.605 6.14946 2.93921
6903 2 461.409 7.44987 3.07451
4504 1 462.102 8.70286 3.02214
9324 2 463.626 8.67853 3.00457
2123 1 464.321 7.41515 2.94819
4523 1 466.482 6.1821 2.63644
6923 2 465.772 7.42994 2.62648
4524 1 466.495 8.6875 2.57511
9343 2 467.974 6.15545 2.64321
2143 1 468.716 7.51265 2.51993
9344 2 467.961 8.77013 2.46719
6943 2 470.105 7.45871 2.26337
9363 2 472.363 6.21457 2.00962
4543 1 470.912 6.1356 2.18867
4544 1 470.883 8.73065 2.16078
9364 2 472.348 8.75036 2.09403
2163 1 473.13 7.46561 2.08452
4563 1 475.284 6.17554 1.89225
9383 2 476.741 6.12296 1.73246
4564 1 475.247 8.68992 1.92915
9384 2 476.699 8.65925 1.67644
6963 2 474.569 7.45196 1.98531
2183 1 477.448 7.44687 1.65648
6983 2 478.869 7.47778 1.49125
4584 1 479.648 8.6996 1.31682
9403 2 481.093 6.20119 1.29885
2203 1 481.89 7.47088 1.19057
9404 2 481.086 8.7032 1.13782
7003 2 483.319 7.49069 0.943236
9423 2 485.539 6.23438 0.782609
4603 1 483.998 6.16762 0.897204
4604 1 484.084 8.78263 0.854912
9424 2 485.561 8.77476 0.783795
2223 1 486.226 7.47209 0.820505
7023 2 487.752 7.52412 0.71165
4624 1 488.446 8.74623 0.470858
9443 2 489.904 6.21958 0.679629
9444 2 489.901 8.72868 0.395474
2243 1 490.603 7.46669 0.408886
7043 2 492.082 7.44228 0.28802
4644 1 492.821 8.73832 0.388951
2263 1 495.01 7.49038 0.209487
9464 2 494.279 8.77211 0.221833
9483 2 498.675 6.26782 -0.0264259
4663 1 497.193 6.20848 -0.0101789
7063 2 496.411 7.518 -0.0318508
4664 1 497.151 8.826 0.0468617
9484 2 498.644 8.82667 0.0130958
4683 1 501.531 6.35222 19.9053
2283 1 499.346 7.57425 -0.0160269
4684 1 501.581 8.85316 19.9744
7083 2 500.839 7.60981 20.071
9503 2 503.034 6.36899 19.8425
2303 1 503.801 7.64826 19.7821
9504 2 502.999 8.89118 19.9817
7103 2 505.296 7.59012 19.8205
4703 1 505.999 6.31471 19.8297
9524 2 507.484 8.94233 19.786
4704 1 506.007 8.92361 19.9422
2323 1 508.157 7.66175 19.7357
85 1 16.9685 12.6034 0.592105
4884 2 18.3892 10.0119 0.428549
2485 1 19.1294 11.2927 0.492512
7305 2 20.5721 11.3771 0.518896
4904 2 22.7639 10.0712 0.696626
2505 1 23.531 11.3277 0.705502
7325 2 25.0266 11.3258 0.640132
124 1 25.7145 10.0342 0.67499
2525 1 27.9161 11.3484 0.879628
4924 2 27.2382 10.031 0.893226
7345 2 29.4019 11.3717 0.992055
2545 1 32.3271 11.398 1.27134
4944 2 31.5978 10.1098 1.15689
144 1 30.1245 10.113 0.975242
164 1 34.4915 10.1731 1.13687
7365 2 33.7903 11.3931 1.16739
2565 1 36.7827 11.4035 1.32951
7385 2 38.2415 11.4159 1.50477
4964 2 35.9826 10.1654 1.14669
184 1 38.9663 10.1643 1.3988
4984 2 40.38 10.0967 1.59173
2585 1 41.0984 11.3914 1.83129
7405 2 42.5686 11.4146 2.03723
204 1 43.237 10.1459 1.99761
5004 2 44.7385 10.1057 2.2431
2605 1 45.4271 11.3717 2.2846
224 1 47.6297 10.0993 2.26817
7425 2 46.8858 11.3616 2.21216
5024 2 49.1283 10.1522 2.34306
2625 1 49.7653 11.4004 2.43193
7445 2 51.2981 11.3562 2.39709
5044 2 53.4542 10.1481 2.58672
2645 1 54.2116 11.3273 2.59423
244 1 51.9902 10.0756 2.45223
7465 2 55.6835 11.2992 2.60011
264 1 56.4359 10.0723 2.65925
5064 2 57.8778 10.06 2.86159
2665 1 58.6006 11.3649 2.96751
7625 2 90.8949 11.1411 3.8248
2825 1 93.8066 11.1013 3.6678
464 1 100.325 9.86218 3.33124
5264 2 101.831 9.80012 3.19437
7685 2 103.976 11.0863 3.1784
484 1 104.724 9.87449 3.06391
2865 1 102.48 11.1033 3.09969
2885 1 106.917 11.1449 2.91555
5284 2 106.177 9.85881 3.0461
2905 1 111.226 11.1046 2.73097
7705 2 108.39 11.0993 2.78347
504 1 109.077 9.84349 2.63458
5304 2 110.532 9.81731 2.58208
524 1 113.441 9.85199 2.59533
7725 2 112.761 11.1399 2.73162
7745 2 117.189 11.0733 2.45775
2925 1 115.684 11.0918 2.48077
5324 2 114.927 9.8525 2.40185
544 1 117.819 9.79563 2.31283
2945 1 119.976 11.0857 2.37452
5344 2 119.279 9.76226 2.35836
7765 2 121.468 11.1241 2.2709
564 1 122.217 9.82276 2.07924
5364 2 123.64 9.81392 1.84747
2965 1 124.395 11.0794 1.96149
7785 2 125.845 11.0722 1.83031
584 1 126.601 9.79217 1.74404
2985 1 128.784 11.1039 1.51349
5384 2 128.056 9.84823 1.55752
7805 2 130.208 11.1468 1.20371
604 1 130.937 9.88115 1.06176
5404 2 132.385 9.92986 0.815196
3005 1 133.091 11.1835 0.749561
7825 2 134.558 11.1243 0.512685
624 1 135.241 9.89252 0.366758
3025 1 137.456 11.1034 0.0684624
7845 2 138.913 11.0856 -0.0608155
5424 2 136.656 9.85407 -0.0151771
644 1 139.635 9.88382 -0.0370268
5444 2 141.079 9.84518 19.9421
3045 1 141.843 11.1243 19.8659
7865 2 143.343 11.1494 19.9729
664 1 144.07 9.87306 19.9716
5464 2 145.512 9.85159 19.9282
3065 1 146.229 11.1163 19.8091
1084 1 236.181 9.80261 19.7944
1085 1 236.148 12.3409 19.7648
8305 2 239.847 11.0568 20.0392
3485 1 238.358 11.0462 19.9295
1104 1 240.566 9.75687 -0.0337696
5885 2 237.559 12.321 19.917
5884 2 237.621 9.76946 19.9995
5904 2 242.023 9.80652 0.206663
3505 1 242.795 11.0746 0.172892
1105 1 240.583 12.3481 -0.0484377
5905 2 241.99 12.3175 0.0921784
8325 2 244.215 11.0932 0.24229
1124 1 244.957 9.81009 0.288368
5924 2 246.42 9.82736 0.239029
5925 2 246.418 12.3493 0.367197
1125 1 244.901 12.3741 0.303511
1144 1 249.328 9.77943 0.231062
8345 2 248.594 11.0692 0.21865
3525 1 247.167 11.06 0.351362
1145 1 249.379 12.3129 0.302257
5944 2 250.783 9.76338 0.392308
8365 2 253.02 11.0849 0.325589
3545 1 251.555 11.0343 0.358671
5945 2 250.869 12.3451 0.432752
1164 1 253.756 9.86762 0.423008
5964 2 255.2 9.91829 0.48256
3565 1 255.991 11.1499 0.38643
1165 1 253.751 12.3641 0.40117
5965 2 255.224 12.3974 0.377666
8385 2 257.459 11.1278 0.339397
1185 1 258.185 12.3506 0.480777
1184 1 258.157 9.83535 0.342498
3585 1 260.347 11.0521 0.397972
5985 2 259.645 12.3909 0.593599
1205 1 262.562 12.3741 0.404654
5984 2 259.57 9.81838 0.357507
8405 2 261.817 11.1415 0.404543
1204 1 262.489 9.85367 0.30733
3605 1 264.717 11.146 0.130012
6004 2 263.964 9.89683 0.189553
6005 2 264.01 12.4275 0.205971
1224 1 266.917 9.87946 0.246502
8425 2 266.209 11.1479 0.16442
6024 2 268.45 9.87966 0.182042
1225 1 266.968 12.4111 0.185331
6025 2 268.384 12.3569 0.0847346
3625 1 269.096 11.1324 0.17254
8445 2 270.574 11.1138 0.316603
1244 1 271.364 9.87139 0.389638
1245 1 271.285 12.4022 0.24984
6045 2 272.729 12.4036 0.247844
6724 2 421.99 10.0051 0.339091
4325 1 422.727 11.2377 0.37646
1944 1 424.951 9.94842 0.559878
6744 2 426.361 9.91196 0.530857
9145 2 424.235 11.1975 0.447607
1964 1 429.303 9.98671 0.890624
4345 1 427.086 11.1814 0.663376
9165 2 428.545 11.2342 0.781484
4365 1 431.512 11.2982 0.840027
6764 2 430.782 9.94425 0.832645
9185 2 432.932 11.2095 1.03593
6784 2 435.18 9.95727 1.21307
4385 1 435.918 11.2135 1.19352
1984 1 433.679 9.95912 1.10157
1985 1 433.711 12.4991 1.07953
2004 1 438.091 9.91888 1.4669
9205 2 437.355 11.1879 1.29041
6804 2 439.529 9.96421 1.7665
4405 1 440.265 11.2445 1.78571
9225 2 441.71 11.2238 2.02935
2024 1 442.36 9.93954 2.1582
4425 1 444.603 11.1721 2.49639
6824 2 443.843 9.95756 2.31685
9245 2 446.06 11.142 2.73662
6844 2 448.208 9.86929 3.23176
2044 1 446.774 9.89648 2.95766
4445 1 448.907 11.1805 3.0437
2065 1 451.099 12.4971 3.1852
2064 1 451.123 9.93719 3.20685
9265 2 450.385 11.2114 3.03373
6865 2 452.525 12.4843 3.21256
6864 2 452.565 9.8873 3.21023
4465 1 453.248 11.1902 3.18558
9285 2 454.721 11.1763 3.14066
6884 2 456.93 9.88654 3.14647
2084 1 455.485 9.89447 3.1646
4485 1 457.682 11.1599 3.07606
2104 1 459.888 9.88422 3.08905
9305 2 459.153 11.1491 3.08172
6904 2 461.347 9.90681 3.07223
4505 1 462.084 11.2046 2.85288
9325 2 463.546 11.1874 2.70044
2124 1 464.404 9.91914 2.79477
4525 1 466.472 11.2673 2.44278
6924 2 465.796 9.98589 2.55572
2144 1 468.684 10.062 2.33076
9345 2 467.926 11.2751 2.33914
6944 2 470.111 10.0082 2.09689
4545 1 470.775 11.2995 2.11795
2164 1 473.013 10.0507 2.05995
9365 2 472.265 11.3113 1.99038
9385 2 476.688 11.3117 1.65435
6964 2 474.527 10.0085 2.05196
4565 1 475.263 11.2887 1.82705
6984 2 478.871 9.98387 1.31234
2184 1 477.358 10.0151 1.47738
4585 1 479.623 11.2149 1.34399
9405 2 481.139 11.2152 1.24773
2204 1 481.878 9.94654 1.11292
2205 1 481.827 12.5058 1.36186
7004 2 483.325 10.0079 0.928358
2224 1 486.316 10.0547 0.713786
4605 1 484.071 11.2937 1.02671
9425 2 485.519 11.3333 0.838384
2225 1 486.184 12.6043 0.841868
7024 2 487.792 10.0583 0.490124
4625 1 488.398 11.3582 0.425992
7025 2 487.625 12.6037 0.392323
9445 2 489.883 11.3062 0.504625
2244 1 490.573 10.0149 0.449763
7044 2 492.035 10.0124 0.40853
4645 1 492.769 11.3133 0.5114
2245 1 490.546 12.5797 0.566436
2264 1 494.922 10.0198 0.191876
9465 2 494.202 11.2778 0.358787
7064 2 496.432 10.0943 0.178311
9485 2 498.593 11.3306 0.0794019
4665 1 497.146 11.3724 0.290554
4685 1 501.521 11.4014 20.067
7084 2 500.794 10.099 20.002
2284 1 499.372 10.0357 -0.0649009
2304 1 503.687 10.1294 20.0268
9505 2 503.037 11.3739 19.9635
7104 2 505.195 10.1455 19.9177
9525 2 507.424 11.4163 19.839
4705 1 505.937 11.3937 19.8621
2324 1 508.192 10.1984 19.7839
7124 2 509.639 10.1539 19.7453
4725 1 510.39 11.4068 19.8882
7145 2 513.977 12.6227 20.0271
4885 2 18.372 12.5927 0.706509
4886 2 18.3746 15.1344 0.739415
2486 1 19.1072 13.8641 0.682445
105 1 21.3943 12.6442 0.579856
4905 2 22.8592 12.6004 0.628135
7306 2 20.6095 13.8809 0.657196
4906 2 22.7888 15.1674 0.614365
125 1 25.7267 12.6429 0.682135
126 1 25.7789 15.1436 1.03299
2506 1 23.5649 13.8914 0.704563
7326 2 25.0385 13.8878 0.779948
7346 2 29.4621 13.8449 1.26002
4925 2 27.1819 12.6595 0.782336
4926 2 27.2467 15.154 1.10867
2526 1 27.9732 13.8737 0.985298
4945 2 31.638 12.6621 1.30085
145 1 30.2055 12.5907 1.1865
146 1 30.1295 15.1382 1.30148
2546 1 32.3615 13.8828 1.35913
4946 2 31.5898 15.155 1.30012
165 1 34.5755 12.6459 1.34352
166 1 34.5623 15.1589 1.54516
7366 2 33.8574 13.9066 1.33884
4965 2 36.0494 12.7048 1.43524
185 1 38.9466 12.6542 1.66334
7386 2 38.1959 13.9415 1.71454
2566 1 36.7701 13.981 1.59335
4966 2 36.0024 15.1948 1.74825
186 1 38.912 15.1223 1.92483
4985 2 40.3943 12.6633 1.77985
2586 1 41.0806 13.9295 2.00679
4986 2 40.2938 15.1755 2.13333
5005 2 44.6946 12.5984 2.39845
205 1 43.2877 12.6442 2.26091
206 1 43.2083 15.1335 2.47904
7406 2 42.4871 13.8686 2.25493
5006 2 44.6613 15.115 2.52637
225 1 47.6205 12.6682 2.43435
2606 1 45.366 13.908 2.51886
7426 2 46.8553 13.9311 2.48848
226 1 47.597 15.1641 2.48396
5025 2 49.0445 12.6492 2.46885
2626 1 49.8183 13.8823 2.48442
5026 2 49.0833 15.1566 2.64654