ITEM: TIMESTEP
0
ITEM: NUMBER OF ATOMS
9600
ITEM: BOX BOUNDS pp pp pp
-2.1611100781365167e+00 5.2435312667977269e+02
-2.0795310898070696e-01 5.0455950392880524e+01
-8.2770705388934829e-02 2.0082770705388953e+01
ITEM: ATOMS id type x y z
4801 2 0.76186 2.32446 0.956666
7201 2 -1.39458 1.15249 0.828266
1 1 -0.676542 2.40512 0.889289
20 1 -0.69029 -0.146645 0.740512
21 1 3.72463 2.33315 0.921342
7221 2 3.02194 1.06714 0.899649
2401 1 1.54298 1.06929 0.864923
40 1 3.80538 -0.196504 1.05355
2421 1 5.92264 1.16053 1.04139
4821 2 5.14984 2.35305 1.0002
4840 2 5.21808 -0.149576 1.24159
7241 2 7.40443 1.15971 0.876221
41 1 8.11842 2.44158 0.858976
4841 2 9.57697 2.45542 0.827012
2441 1 10.2626 1.12621 0.830914
4860 2 9.58075 -0.164051 0.963656
60 1 8.09247 -0.128941 1.01355
7261 2 11.7675 1.07049 0.657373
61 1 12.5098 2.33327 0.603102
80 1 12.449 -0.193164 0.733898
4861 2 13.9467 2.37573 0.694899
2461 1 14.6797 1.04979 0.728818
7281 2 16.1279 1.11134 0.671293
81 1 16.8332 2.37264 0.6892
2481 1 19.0199 1.02655 0.613293
4881 2 18.3345 2.33933 0.666956
100 1 16.8673 -0.205222 0.751475
101 1 21.2282 2.32396 0.855176
7301 2 20.4882 1.07278 0.748847
4901 2 22.7388 2.2851 0.990384
7321 2 24.8476 1.05248 0.799585
121 1 25.6264 2.30623 0.831508
2501 1 23.3798 0.977168 0.927197
140 1 25.6251 -0.180497 0.750119
2521 1 27.8193 1.02031 0.681618
4921 2 27.0611 2.30682 0.833018
7341 2 29.2747 1.06281 0.650202
4941 2 31.519 2.28379 0.708788
141 1 30.0226 2.3464 0.782668
2541 1 32.2332 1.02849 0.735862
4960 2 31.4953 -0.203689 0.694908
160 1 30.0016 -0.177538 0.624408
7361 2 33.7084 1.02963 0.595812
161 1 34.4563 2.31051 0.659782
7381 2 38.1319 1.05152 0.486926
2561 1 36.6607 1.00568 0.436972
4961 2 35.8992 2.29812 0.424818
181 1 38.9099 2.29893 0.431337
2581 1 41.0372 0.986009 0.36733
4981 2 40.3742 2.28425 0.378316
7401 2 42.4521 0.971995 0.438065
201 1 43.2194 2.2836 0.401158
5001 2 44.7064 2.26931 0.338175
221 1 47.6121 2.29255 -0.0372722
2601 1 45.4274 0.987527 0.269081
7421 2 46.8544 1.00469 0.0153617
741 1 161.556 2.32142 -0.0359781
3141 1 163.786 1.00793 0.138922
5541 2 163.043 2.23785 0.131145
7961 2 165.246 0.97214 0.211385
761 1 166.008 2.18633 0.219719
5561 2 167.48 2.18087 0.286555
781 1 170.436 2.16465 0.669498
3161 1 168.206 0.928836 0.369855
7981 2 169.659 0.954994 0.551149
3181 1 172.631 0.920031 0.821975
8001 2 174.05 0.938631 0.958207
5581 2 171.864 2.13917 0.846021
5601 2 176.293 2.20868 1.20147
801 1 174.845 2.13468 1.10589
3201 1 176.972 0.968784 1.21547
821 1 179.092 2.19392 1.5352
8021 2 178.403 0.920974 1.38465
5621 2 180.572 2.21991 1.74549
8041 2 182.842 0.995897 1.92164
841 1 183.551 2.19604 2.01735
3221 1 181.377 1.01009 1.77003
3241 1 185.732 0.953983 2.03546
5641 2 184.965 2.20558 1.84754
5661 2 189.393 2.17175 2.04731
8061 2 187.156 0.891183 2.01421
861 1 187.922 2.14062 2.08406
3261 1 190.106 0.903037 1.96223
8081 2 191.572 0.936 2.0243
881 1 192.279 2.20901 2.00987
8101 2 195.994 0.983964 2.01987
3281 1 194.538 0.974941 2.03028
5681 2 193.787 2.20978 2.11491
3301 1 198.973 1.02655 2.01324
5701 2 198.202 2.24859 1.89167
901 1 196.757 2.21859 1.92422
921 1 201.138 2.27422 2.17716
5721 2 202.587 2.25911 2.27502
8121 2 200.399 1.03618 2.02202
940 1 201.157 -0.151501 2.06801
941 1 205.457 2.31944 2.31518
3321 1 203.323 1.04425 2.17055
8141 2 204.785 1.03949 2.24816
5741 2 206.913 2.28756 2.43538
3341 1 207.624 1.05691 2.37114
5761 2 211.321 2.32671 2.37497
3361 1 211.976 0.995871 2.27501
961 1 209.845 2.30987 2.33629
8161 2 209.122 1.03502 2.38014
8181 2 213.499 1.01784 2.24946
981 1 214.277 2.29854 2.21517
8201 2 217.85 1.0083 2.00113
3381 1 216.369 1.02439 2.14291
5781 2 215.721 2.29178 2.10085
5801 2 220.112 2.247 1.78564
3401 1 220.806 0.940873 1.69884
1001 1 218.653 2.30863 1.90016
5821 2 224.495 2.30536 1.5618
1021 1 223.013 2.23892 1.68127
8221 2 222.251 0.997187 1.69083
1041 1 227.391 2.31562 1.44986
8241 2 226.649 1.10877 1.48409
3421 1 225.189 1.01448 1.63777
5841 2 228.877 2.2806 1.28372
3441 1 229.663 0.999814 1.33896
5860 2 228.854 -0.201709 1.60484
8261 2 231.117 0.963821 1.15394
1061 1 231.78 2.27838 0.89231
3461 1 234.018 1.02645 1.0818
5861 2 233.25 2.27601 0.877411
1081 1 236.207 2.30811 0.763035
8281 2 235.446 1.00893 0.965045
8301 2 239.886 1.04812 0.695558
3481 1 238.447 1.0591 0.683282
5881 2 237.69 2.28302 0.640502
5900 2 237.669 -0.166493 0.70412
1101 1 240.584 2.33425 0.528485
5901 2 242.029 2.31479 0.419246
3501 1 242.755 1.02488 0.567193
1121 1 244.88 2.2088 0.685967
8321 2 244.224 0.966404 0.570748
5921 2 246.373 2.2611 0.599217
3521 1 247.121 1.00186 0.540254
8341 2 248.566 1.04739 0.64428
1141 1 249.289 2.34239 0.657312
8361 2 253.009 1.10437 0.739699
3541 1 251.515 1.05127 0.692025
5941 2 250.788 2.38413 0.664107
1161 1 253.674 2.35604 0.793403
5961 2 255.156 2.42704 0.77934
3561 1 255.829 1.10781 0.86004
1180 1 253.679 -0.195363 0.794531
8381 2 257.305 1.12803 0.720378
1181 1 258.001 2.39373 0.700849
1200 1 258.08 -0.168867 0.75021
5981 2 259.529 2.36989 0.73211
8401 2 261.72 1.09038 0.66898
3581 1 260.243 1.11144 0.684816
1201 1 262.401 2.36707 0.68196
1220 1 262.466 -0.158707 0.770134
6000 2 259.552 -0.174993 0.963039
6001 2 263.885 2.36914 0.693335
3601 1 264.629 1.1404 0.796452
6020 2 263.925 -0.155147 0.734032
6021 2 268.323 2.34557 0.705093
1221 1 266.833 2.33598 0.727114
8421 2 266.103 1.08545 0.679112
1240 1 266.849 -0.139754 0.762977
3621 1 269.045 1.02384 0.662242
8441 2 270.502 1.07801 0.463417
1241 1 271.272 2.33921 0.48738
1260 1 271.256 -0.146023 0.462323
6041 2 272.712 2.27763 0.316114
3641 1 273.446 1.05432 0.219974
8461 2 274.943 1.05817 0.127484
1261 1 275.659 2.37515 0.00695355
1280 1 275.641 -0.200325 0.103073
6080 2 277.101 -0.15076 -0.033072
8641 2 314.474 1.19606 0.0996322
1441 1 315.2 2.402 0.18891
1460 1 315.183 -0.0363223 0.232978
8661 2 318.802 1.17597 0.728828
3841 1 317.39 1.20023 0.490316
6241 2 316.688 2.4466 0.337575
6260 2 316.613 -0.104972 0.416372
3861 1 321.791 1.10885 0.975904
6261 2 321.019 2.40262 1.02505
1461 1 319.556 2.43396 0.875205
6280 2 320.988 -0.138074 0.959948
1480 1 319.532 -0.138558 0.737818
6281 2 325.378 2.34387 1.03202
1481 1 323.949 2.37198 0.977519
8681 2 323.189 1.09421 0.950011
6300 2 325.407 -0.173277 0.908493
3881 1 326.148 1.06484 0.903669
8701 2 327.595 1.04958 0.786544
1501 1 328.328 2.3777 0.850343
1520 1 328.384 -0.185507 0.831357
3901 1 330.528 1.21008 0.985573
6301 2 329.772 2.42248 0.779058
8721 2 331.997 1.11664 1.04323
6320 2 329.806 -0.105352 0.879853
1521 1 332.755 2.33007 1.00935
6321 2 334.238 2.37401 1.08544
3921 1 334.977 1.12976 1.0328
1540 1 332.725 -0.140385 1.11409
6340 2 334.209 -0.125405 0.981673
8741 2 336.44 1.09663 0.974749
1541 1 337.16 2.39684 0.892257
1560 1 337.169 -0.17478 1.01029
6341 2 338.618 2.41874 0.817894
3941 1 339.327 1.14942 1.02873
8761 2 340.775 1.08821 1.21517
6360 2 338.643 -0.127982 1.10104
1561 1 341.5 2.33796 1.1023
6361 2 342.941 2.29416 1.07454
3961 1 343.691 1.01877 1.22268
8781 2 345.151 1.08038 1.38281
1581 1 345.892 2.37075 1.34865
6381 2 347.398 2.34703 1.43574
1600 1 345.86 -0.182344 1.54434
6400 2 347.368 -0.187742 1.51256
3981 1 348.058 1.03462 1.53027
8801 2 349.586 1.10985 1.62903
1601 1 350.362 2.32533 1.61209
1620 1 350.297 -0.155439 1.62782
6401 2 351.811 2.39016 1.58977
4001 1 352.458 1.13581 1.61933
8821 2 353.964 1.10048 1.77462
6420 2 351.725 -0.116237 1.80929
1621 1 354.692 2.29566 1.78399
6421 2 356.145 2.40814 1.92189
4021 1 356.85 1.20712 1.92905
1640 1 354.661 -0.170605 1.81081
6440 2 356.116 -0.132037 1.9424
1641 1 359.104 2.3449 1.86391
8841 2 358.347 1.11166 1.96111
1660 1 359.102 -0.129192 2.06298
6441 2 360.533 2.36311 1.96198
4041 1 361.234 1.10849 2.02766
8861 2 362.76 1.0858 2.05007
1661 1 363.461 2.39548 2.13426
6460 2 360.533 -0.134827 2.05322
1680 1 363.549 -0.110164 2.27224
4061 1 365.683 1.16078 2.40732
6461 2 364.945 2.439 2.32933
6480 2 364.98 -0.164512 2.44143
8881 2 367.164 1.17916 2.53319
6481 2 369.393 2.37198 2.43225
1681 1 367.93 2.41482 2.43345
1700 1 367.854 -0.119106 2.58941
6500 2 369.319 -0.0972152 2.8335
8901 2 371.546 1.2014 2.61406
1701 1 372.245 2.43974 2.41423
4081 1 370.114 1.15283 2.62978
1720 1 372.259 -0.0730333 2.60136
8921 2 375.879 1.11859 2.32837
4101 1 374.466 1.20824 2.39527
6501 2 373.686 2.46114 2.31663
6520 2 373.756 -0.0499979 2.54752
1721 1 376.633 2.40505 2.18215
6521 2 378.079 2.38194 2.2344
4121 1 378.837 1.16024 2.27674
1740 1 376.639 -0.16418 2.45282
6540 2 378.088 -0.0890082 2.33707
8941 2 380.25 1.07687 2.06595
1741 1 381.032 2.35885 1.94149
6541 2 382.47 2.32521 1.79781
1760 1 380.976 -0.168599 2.11606
8961 2 384.701 1.06309 1.81097
1761 1 385.405 2.36965 1.72665
4141 1 383.245 1.06131 1.91211
1780 1 385.423 -0.196156 1.91608
4161 1 387.643 1.13442 1.62965
6561 2 386.867 2.41538 1.60756
6580 2 386.905 -0.100946 1.82416
8981 2 389.085 1.11546 1.53376
6581 2 391.327 2.37824 1.31133
1781 1 389.837 2.35747 1.4689
6600 2 391.246 -0.157308 1.20517
1801 1 394.246 2.33201 0.944438
9001 2 393.501 1.10279 1.04354
4181 1 392.029 1.08654 1.15909
1820 1 394.13 -0.19379 1.0546
6601 2 395.66 2.39488 0.719792
4201 1 396.352 1.02705 0.674711
9021 2 397.783 1.11469 0.603391
4221 1 400.717 1.16312 0.27331
1821 1 398.486 2.45253 0.440278
6621 2 399.963 2.41945 0.379724
6640 2 399.979 -0.151936 0.317086
1840 1 398.483 -0.161666 0.432656
1841 1 402.852 2.43148 0.300809
9041 2 402.171 1.16378 0.159463
1860 1 402.918 -0.139243 0.331785
6641 2 404.304 2.39387 0.348871
6660 2 404.406 -0.152751 0.335727
9061 2 406.554 1.1381 0.439032
4241 1 405.05 1.14314 0.423555
1861 1 407.266 2.46635 0.176056
1880 1 407.257 -0.132194 0.285646
4261 1 409.47 1.1098 -0.0437479
6680 2 408.678 -0.126119 0.0662642
1900 1 411.661 -0.115099 -0.0146094
6700 2 413.111 -0.203963 -0.0637959
7141 2 514.116 2.3336 0.586298
2341 1 512.684 2.32762 0.374269
9541 2 511.992 1.03264 0.112037
4741 1 514.885 1.0569 0.631258
2360 1 512.733 -0.17262 0.143242
2361 1 517.06 2.31655 0.96755
9561 2 516.3 1.06293 0.819557
2380 1 517.065 -0.170243 0.772107
9581 2 520.719 1.06964 0.915206
7161 2 518.519 2.32365 1.09629
4761 1 519.241 1.09717 0.973088
2381 1 521.476 2.32892 1.11715
7181 2 522.919 2.37263 0.914009
4781 1 523.595 1.10035 0.81943
2400 1 521.362 -0.20484 0.862659
7200 2 522.86 -0.17103 0.705035
2 1 -0.625585 4.95692 0.91438
4802 2 0.80171 4.87695 1.01725
7202 2 -1.37822 3.679 0.858543
2402 1 1.49882 3.52081 1.03629
7222 2 3.0007 3.59094 1.13738
22 1 3.70861 4.85696 1.04765
2422 1 5.9194 3.62117 0.878005
4822 2 5.18774 4.86385 0.888113
7242 2 7.37368 3.66884 0.751861
2442 1 10.3157 3.65115 0.681393
42 1 8.14723 4.98738 0.724967
4842 2 9.55326 4.91676 0.719243
7262 2 11.7882 3.60503 0.554702
62 1 12.4672 4.93638 0.515735
2462 1 14.6617 3.65632 0.600587
4862 2 13.9632 4.88292 0.461354
7282 2 16.1083 3.66966 0.412215
2463 1 14.7142 6.1245 0.470823
82 1 16.8472 4.88497 0.418646
2482 1 19.1266 3.63686 0.686855
4882 2 18.3375 4.87055 0.630883
2483 1 19.0863 6.11335 0.64016
4902 2 22.7662 4.86108 0.881583
7302 2 20.5771 3.63048 0.779331
102 1 21.32 4.83982 0.817245
7303 2 20.6021 6.09761 0.815359
7322 2 24.93 3.57385 0.829047
122 1 25.6822 4.78972 1.00274
2502 1 23.4551 3.54587 0.887542
7323 2 24.977 6.08426 0.981882
2522 1 27.8165 3.57008 0.773406
4922 2 27.1697 4.85211 0.912934
7342 2 29.3217 3.56598 0.864287
142 1 30.0798 4.81698 0.788574
4942 2 31.5452 4.80132 0.793023
2542 1 32.2704 3.55357 0.824782
7343 2 29.3853 6.1002 0.826963
2543 1 32.2853 6.11761 0.899778
7362 2 33.7236 3.54671 0.803077
162 1 34.4821 4.82505 0.842193
7363 2 33.6644 6.0131 0.849604
4962 2 35.9546 4.83346 0.747292
7382 2 38.1474 3.59407 0.505763
2562 1 36.6883 3.54978 0.567992
7383 2 38.1664 6.10846 0.659373
2563 1 36.6439 6.0958 0.797457
182 1 38.8601 4.84423 0.571529
4982 2 40.336 4.80974 0.383832
2582 1 41.0702 3.57089 0.411864
2583 1 41.0865 6.11654 0.528087
202 1 43.2406 4.7938 0.355298
7402 2 42.5081 3.53391 0.32593
5002 2 44.6811 4.74399 0.187626
7403 2 42.5265 6.091 0.496507
2603 1 45.401 6.01788 0.111936
2602 1 45.4023 3.5327 0.219302
7422 2 46.8582 3.53601 0.0451696
7423 2 46.8532 6.04745 -0.0431751
7942 2 160.804 3.55511 -0.0179778
742 1 161.591 4.75409 -0.0778239
3142 1 163.767 3.49214 0.165585
5542 2 162.983 4.74948 0.139498
3143 1 163.761 5.991 0.061012
5562 2 167.399 4.68956 0.468957
762 1 165.984 4.74467 0.37915
7962 2 165.271 3.496 0.293336
7963 2 165.247 5.99908 0.311711
7982 2 169.66 3.44761 0.543502
782 1 170.42 4.68925 0.703743
3162 1 168.187 3.44308 0.481378
3163 1 168.237 5.94416 0.581319
7983 2 169.645 5.90793 0.751031
8002 2 174.071 3.42362 1.12279
5582 2 171.849 4.66879 0.994731
3182 1 172.623 3.39541 0.97835
3183 1 172.579 5.95674 1.06611
8003 2 173.985 5.95152 1.17867
3202 1 177.007 3.4857 1.31737
802 1 174.751 4.68443 1.27832
5602 2 176.183 4.72732 1.40809
3203 1 176.896 5.97479 1.47752
8022 2 178.395 3.46128 1.45586
822 1 179.108 4.7217 1.58931
5622 2 180.59 4.76719 1.67151
8023 2 178.388 6.00906 1.58055
3222 1 181.328 3.50258 1.7852
8042 2 182.829 3.50735 1.97011
842 1 183.608 4.69169 1.94583
8043 2 182.807 5.97367 1.83563
3223 1 181.377 6.0131 1.66818
5642 2 185.002 4.72397 1.99911
3242 1 185.695 3.46235 1.91231
3243 1 185.688 6.01317 2.08007
862 1 187.859 4.71041 2.07198
8062 2 187.183 3.47737 1.91625
5662 2 189.335 4.74467 1.94343
3262 1 190.115 3.44858 1.99359
8063 2 187.177 6.00199 2.03956
3263 1 190.104 5.96634 1.9942
8082 2 191.57 3.47695 2.05205
882 1 192.316 4.74546 2.03908
8083 2 191.569 6.03671 2.07348
5682 2 193.733 4.77255 1.97789
3282 1 194.488 3.44167 2.09305
8102 2 195.997 3.5112 1.8574
3283 1 194.528 6.04703 2.05333
8103 2 196.006 6.03707 1.95633
3302 1 198.982 3.50689 1.9316
5702 2 198.2 4.78044 1.86179
902 1 196.714 4.77989 1.88924
3303 1 198.877 6.05747 2.03515
8122 2 200.438 3.51183 2.07774
922 1 201.148 4.9017 2.19433
5722 2 202.591 4.85642 2.34457
8142 2 204.725 3.58266 2.25093
942 1 205.462 4.83916 2.32825
3322 1 203.299 3.56875 2.24695
3323 1 203.289 6.10511 2.36422
8143 2 204.788 6.0956 2.33344
3342 1 207.665 3.54168 2.4101
5742 2 206.892 4.72128 2.42745
3343 1 207.696 5.99003 2.32819
5762 2 211.349 4.83533 2.31367
962 1 209.904 4.76912 2.33828
3362 1 212.028 3.55955 2.31681
8162 2 209.107 3.53069 2.37194
3363 1 212.095 6.09105 2.28654
8163 2 209.125 6.02448 2.3142
8182 2 213.527 3.56412 2.27662
982 1 214.251 4.78409 2.26306
8183 2 213.54 6.0282 2.33116
3382 1 216.441 3.55186 2.15323
8202 2 217.916 3.5232 1.8601
5782 2 215.752 4.78072 2.12518
8203 2 217.897 6.03677 2.02433
3383 1 216.425 6.06093 2.09832
3402 1 220.832 3.52426 1.77354
5802 2 220.083 4.82008 1.73783
1002 1 218.685 4.77111 1.86339
3403 1 220.81 6.04844 1.77822
5822 2 224.497 4.86373 1.5011
8222 2 222.298 3.55109 1.71973
1022 1 223.009 4.78034 1.61588
8223 2 222.242 6.0415 1.6539
8242 2 226.679 3.60649 1.49636
1042 1 227.448 4.85298 1.43478
3422 1 225.264 3.62139 1.5145
3442 1 229.584 3.56715 1.17611
5842 2 228.894 4.84156 1.21251
8262 2 231.068 3.52887 1.04228
8263 2 231.046 6.09596 1.2835
3443 1 229.616 6.07597 1.4048
1062 1 231.775 4.82977 1.10538
3462 1 233.999 3.58067 0.813545
5862 2 233.223 4.83423 0.967167
3463 1 233.994 6.11992 1.05987
8282 2 235.454 3.58276 0.594441
1082 1 236.125 4.83176 0.634859
8283 2 235.406 6.07318 0.835993
5882 2 237.539 4.796 0.593286
3482 1 238.359 3.52632 0.636872
8302 2 239.82 3.56166 0.606827
3483 1 238.317 6.03003 0.656822
1102 1 240.555 4.79673 0.533501
8303 2 239.809 6.06115 0.527469
5902 2 242.058 4.8881 0.497357
3502 1 242.808 3.61483 0.492928
3503 1 242.763 6.12097 0.579901
1122 1 245.002 4.80659 0.656607
8322 2 244.207 3.52656 0.667491
5922 2 246.437 4.74656 0.786423
8323 2 244.211 6.06268 0.579287
1142 1 249.296 4.87662 0.870056
3522 1 247.148 3.54038 0.729508
8342 2 248.561 3.5744 0.733762
8343 2 248.557 6.08538 0.854413
3523 1 247.099 5.99259 0.91922
5942 2 250.762 4.89316 0.89838
3542 1 251.502 3.666 0.837068
8362 2 252.951 3.65579 0.965388
1162 1 253.63 4.92231 0.881517
5962 2 255.086 4.98725 0.83386
3562 1 255.848 3.70328 0.842126
1182 1 258.074 4.9189 0.770823
8382 2 257.309 3.66918 0.798302
5982 2 259.529 4.96399 0.607097
8402 2 261.741 3.65577 0.733465
3582 1 260.244 3.67626 0.765515
1202 1 262.539 4.95498 0.60311
3602 1 264.669 3.59767 0.644311
6002 2 263.958 4.93089 0.574905
8422 2 266.154 3.58004 0.707952
6022 2 268.362 4.82321 0.660534
1222 1 266.93 4.82614 0.646033
3622 1 269.094 3.58033 0.615444
1242 1 271.309 4.82844 0.577941
8442 2 270.54 3.59894 0.536944
8443 2 270.562 6.10844 0.65971
3623 1 269.135 6.06486 0.808575
6042 2 272.752 4.83346 0.495306
3642 1 273.406 3.56486 0.429697
8462 2 274.911 3.55694 0.307905
3643 1 273.544 6.11155 0.520799
1262 1 275.624 4.88122 0.163391
1442 1 315.155 4.91707 0.250548
8642 2 314.419 3.66932 0.147003
3842 1 317.389 3.69432 0.530316
8662 2 318.794 3.6827 0.8145
6242 2 316.626 4.92541 0.418634
1462 1 319.529 4.98322 0.775435
3862 1 321.692 3.66738 1.0807
6262 2 320.995 4.96873 0.91792
6282 2 325.367 4.8436 0.996231
1482 1 323.879 4.90905 1.03989
8682 2 323.15 3.6398 1.13078
3882 1 326.151 3.61301 0.945471
8702 2 327.584 3.60705 0.921671
1502 1 328.247 4.91276 0.874275
6302 2 329.727 4.89497 0.838632
3902 1 330.54 3.66391 0.816534
3903 1 330.512 6.11978 0.887193
8722 2 332.001 3.5848 0.849096
1522 1 332.737 4.89856 0.840249
6322 2 334.203 4.90285 0.898567
3922 1 334.889 3.6434 1.02913
8742 2 336.389 3.58774 0.969731
1542 1 337.139 4.87658 0.95042
6342 2 338.631 4.92769 0.936418
3942 1 339.373 3.66964 0.886525
8762 2 340.876 3.60175 0.856487
1562 1 341.531 4.86768 1.01413
3962 1 343.714 3.58127 1.08226
6362 2 342.982 4.84462 1.13682
3963 1 343.756 6.04896 1.01281
1582 1 345.973 4.85797 1.28474
8782 2 345.144 3.55584 1.25996
6382 2 347.395 4.83307 1.38037
8783 2 345.206 6.07123 1.12217
3982 1 348.131 3.54995 1.40355
1602 1 350.283 4.86562 1.42264
8802 2 349.584 3.6136 1.48461
6402 2 351.763 4.88337 1.581
4002 1 352.559 3.63529 1.57836
8822 2 353.995 3.66915 1.65863
6422 2 356.14 4.94817 1.617
1622 1 354.655 4.96446 1.67225
4022 1 356.896 3.66133 1.80334
8842 2 358.32 3.66656 1.88116
1642 1 359.075 4.94774 2.01119
8862 2 362.748 3.66706 1.9876
6442 2 360.483 4.89312 2.13831
4042 1 361.243 3.60401 2.00864
1662 1 363.462 4.90064 2.15459
6462 2 364.962 4.91896 2.15663
4062 1 365.704 3.72089 2.25677
8882 2 367.216 3.67956 2.15966
1682 1 367.922 4.9302 2.15318
6482 2 369.391 4.9431 2.10137
8902 2 371.547 3.64959 2.25148
1702 1 372.299 4.94412 2.19637
4082 1 370.086 3.69009 2.22863
8922 2 375.908 3.65006 2.13796
4102 1 374.44 3.71927 2.18378
6502 2 373.77 4.96126 2.12337
8923 2 375.938 6.12106 2.07774
4122 1 378.817 3.6269 2.08178
1722 1 376.711 4.87071 2.01374
6522 2 378.142 4.86017 1.96564
4123 1 378.853 6.09816 1.96803
8942 2 380.303 3.60515 1.96231
1742 1 381.066 4.8418 1.82011
6542 2 382.507 4.89251 1.60669
1762 1 385.493 4.88328 1.66884
4142 1 383.276 3.5745 1.71189
8962 2 384.732 3.61467 1.73418
4143 1 383.233 6.09914 1.60328
8963 2 384.712 6.12123 1.68124
4162 1 387.606 3.63783 1.61563
6562 2 386.917 4.93088 1.66039
8982 2 389.077 3.65301 1.52582
6582 2 391.244 4.89769 1.22421
1782 1 389.798 4.89828 1.34822
4182 1 392.059 3.67777 1.2157
9002 2 393.472 3.56437 0.96028
1802 1 394.177 4.91487 0.921486
4202 1 396.359 3.6321 0.735934
9022 2 397.824 3.70983 0.582733
6602 2 395.638 4.92551 0.762212
6622 2 400.045 4.96911 0.418717
4222 1 400.714 3.67097 0.376376
1822 1 398.559 4.98165 0.423893
1842 1 402.847 4.96816 0.395839
9042 2 402.168 3.66016 0.382342
6642 2 404.347 4.95583 0.312469
9062 2 406.529 3.70714 0.0839807
4242 1 405.065 3.67973 0.241705
1862 1 407.306 4.97319 0.160942
6662 2 408.799 4.91851 0.110799
4262 1 409.456 3.64647 0.00729075
9082 2 410.977 3.67839 -0.0560926
7122 2 509.79 4.85743 -0.0462245
4722 1 510.525 3.57729 0.0121561
2342 1 512.607 4.8745 0.547999
7142 2 514.053 4.83373 0.680617
9542 2 511.992 3.58618 0.354581
4742 1 514.824 3.58965 0.730232
9543 2 511.855 6.11436 0.607458
4743 1 514.83 6.10199 0.75886
2362 1 516.986 4.85067 1.03901
9562 2 516.288 3.57268 0.967145
9563 2 516.296 6.11519 0.853513
4762 1 519.288 3.60535 1.11462
9582 2 520.754 3.6168 1.20034
7162 2 518.523 4.89624 1.03844
4782 1 523.658 3.64381 0.885499
7182 2 522.892 4.93148 0.957654
2382 1 521.442 4.87835 1.11166
4803 2 0.829972 7.38892 1.17229
7203 2 -1.39019 6.19106 0.972923
3 1 -0.675666 7.41954 1.1137
7204 2 -1.37643 8.61332 1.16804
2403 1 1.51694 6.12654 1.10889
2404 1 1.56501 8.60145 1.07897
23 1 3.6683 7.43466 1.19415
7224 2 2.9763 8.72259 1.13356
7223 2 2.98513 6.14396 1.10076
2423 1 5.88028 6.16155 0.9577
2424 1 5.83416 8.71863 0.962493
4823 2 5.12413 7.40161 1.08726
7243 2 7.30467 6.20091 0.808164
2443 1 10.2767 6.17485 0.683746
2444 1 10.2432 8.68739 0.570252
4843 2 9.49611 7.44622 0.549205
7244 2 7.30139 8.72831 0.747789
43 1 7.99406 7.46364 0.703043
7263 2 11.7791 6.14973 0.70692
7264 2 11.6981 8.68822 0.449335
63 1 12.5031 7.43216 0.532691
7283 2 16.1802 6.14559 0.366014
2464 1 14.6274 8.63324 0.462081
4863 2 13.93 7.39924 0.470603
7284 2 16.1105 8.63678 0.510749
83 1 16.8737 7.41356 0.486034
2484 1 19.098 8.65574 0.508454
4883 2 18.3499 7.38113 0.510713
4903 2 22.7691 7.43405 0.587725
103 1 21.3333 7.34411 0.714867
7304 2 20.6208 8.64831 0.578027
2503 1 23.5424 6.17458 0.817144
2504 1 23.4403 8.71467 0.632496
7324 2 24.9326 8.66823 0.814567
123 1 25.6769 7.39546 0.841802
4923 2 27.1378 7.41785 0.860363
2523 1 27.8877 6.21463 0.91292
2524 1 27.8884 8.67463 0.833174
7344 2 29.3585 8.66367 0.778726
2544 1 32.2662 8.66384 0.923443
4943 2 31.5696 7.38501 0.861287
143 1 30.1404 7.38761 0.821431
7364 2 33.7421 8.66619 0.874752
163 1 34.4149 7.30748 0.896024
2564 1 36.6099 8.61096 0.846546
4963 2 35.8819 7.31721 0.791983
7384 2 38.1389 8.6195 0.740352
183 1 38.8822 7.36568 0.679388
2584 1 41.108 8.67312 0.584104
4983 2 40.376 7.39154 0.605123
203 1 43.2331 7.32878 0.397067
7404 2 42.5412 8.62143 0.479098
5003 2 44.6923 7.32538 0.149751
7424 2 46.898 8.55329 -0.00139354
2604 1 45.4227 8.6117 0.20947
3144 1 163.828 8.5142 -0.0692785
5563 2 167.475 7.24922 0.476027
7964 2 165.332 8.50068 0.0813181
763 1 166.022 7.26139 0.314032
7984 2 169.685 8.47722 0.668069
783 1 170.378 7.21705 0.842551
3164 1 168.208 8.45611 0.497463
5583 2 171.776 7.24835 1.00008
3184 1 172.556 8.49917 0.984033
8004 2 174.033 8.51276 1.11806
803 1 174.707 7.22287 1.14072
3204 1 176.905 8.4605 1.39575
5603 2 176.184 7.2157 1.33674
8024 2 178.369 8.52172 1.55518
823 1 179.105 7.26377 1.65837
5623 2 180.582 7.25793 1.65687
843 1 183.548 7.23541 1.91131
3224 1 181.352 8.51605 1.71451
8044 2 182.856 8.48586 1.77744
5643 2 184.964 7.27896 2.05223
3244 1 185.655 8.59633 2.05971
8064 2 187.16 8.55341 1.93013
863 1 187.882 7.27335 2.11666
5663 2 189.356 7.22716 2.11923
3264 1 190.079 8.5544 2.12628
883 1 192.312 7.28791 2.08091
8084 2 191.561 8.51215 2.13513
5683 2 193.784 7.26033 2.04144
3284 1 194.44 8.62027 2.12248
8104 2 195.902 8.6018 2.10213
3304 1 198.859 8.56356 2.31245
903 1 196.637 7.3156 2.07142
5703 2 198.103 7.33034 2.1597
8123 2 200.338 6.13535 2.19847
923 1 201.063 7.35747 2.32183
5723 2 202.535 7.38377 2.4584
8124 2 200.33 8.616 2.35166
3324 1 203.266 8.5895 2.31831
8144 2 204.709 8.58437 2.21421
943 1 205.483 7.38595 2.26218
3344 1 207.72 8.53148 2.30077
5743 2 206.95 7.25293 2.29142
8164 2 209.235 8.59925 2.43626
5763 2 211.379 7.32472 2.27428
963 1 209.928 7.30932 2.32839
3364 1 212.077 8.6243 2.26077
983 1 214.249 7.3252 2.35076
8184 2 213.526 8.55552 2.41542
8204 2 217.954 8.65056 2.05499
5783 2 215.707 7.37367 2.2252
3384 1 216.471 8.64908 2.24989
3404 1 220.8 8.56981 1.97093
5803 2 220.103 7.30433 1.86052
1003 1 218.588 7.34631 1.94093
5823 2 224.453 7.36894 1.74414
1023 1 222.947 7.34139 1.7918
8224 2 222.238 8.56076 1.9903
3423 1 225.179 6.14629 1.54867
8243 2 226.673 6.13622 1.48276
1043 1 227.489 7.35725 1.61037
8244 2 226.721 8.60035 1.77374
3424 1 225.246 8.59864 1.84211
5843 2 228.902 7.38912 1.58766
3444 1 229.633 8.65721 1.6478
8264 2 231.072 8.61438 1.63283
1063 1 231.735 7.38564 1.42694
3464 1 234.051 8.52471 1.24424
5863 2 233.218 7.3364 1.19335
1083 1 236.245 7.33486 0.909161
8284 2 235.483 8.57852 1.11945
5883 2 237.694 7.33348 0.719346
3484 1 238.438 8.63532 0.777082
8304 2 239.893 8.67891 0.674023
1103 1 240.546 7.37959 0.600807
5903 2 242.007 7.38062 0.724362
3504 1 242.784 8.64789 0.819429
8324 2 244.234 8.62997 0.820041
1123 1 244.918 7.31721 0.808112
5923 2 246.392 7.30177 0.965841
1143 1 249.359 7.38291 1.00997
8344 2 248.622 8.63681 0.960829
3524 1 247.148 8.57968 0.95019
8363 2 252.943 6.22852 0.914539
3543 1 251.49 6.16665 0.902288
5943 2 250.79 7.45102 0.930403
3544 1 251.516 8.69326 0.91398
8364 2 252.989 8.73309 0.95864
3563 1 255.915 6.21907 0.767059
5963 2 255.183 7.4835 0.822791
1163 1 253.747 7.49882 0.898298
3564 1 255.932 8.74169 0.86243
8383 2 257.389 6.21991 0.87056
1183 1 258.149 7.48288 0.798789
8384 2 257.354 8.70109 0.987295
3583 1 260.302 6.25919 0.585442
8403 2 261.754 6.18999 0.589503
5983 2 259.592 7.58874 0.637584
8404 2 261.757 8.78272 0.816092
3584 1 260.281 8.78528 0.864948
1203 1 262.489 7.50109 0.766991
3603 1 264.709 6.16407 0.752773
3604 1 264.718 8.70835 0.820595
6003 2 263.995 7.41333 0.822788
8423 2 266.176 6.15241 0.757634
1223 1 266.957 7.38636 0.762738
6023 2 268.44 7.37271 0.882873
8424 2 266.197 8.65733 0.806005
8444 2 270.56 8.66898 0.779404
1243 1 271.317 7.39156 0.682648
3624 1 269.112 8.65349 0.94526
8463 2 274.943 6.21366 0.263664
6043 2 272.76 7.38573 0.576239
3644 1 273.474 8.65149 0.50799
8464 2 274.945 8.71708 0.441548
3663 1 277.762 6.2264 -0.0408452
3664 1 277.884 8.72948 0.168098
6063 2 277.065 7.45397 0.124807
1263 1 275.671 7.47952 0.260813
8484 2 279.369 8.72183 0.10336
1283 1 280.082 7.48701 -0.0343788
3823 1 313.035 6.1712 -0.00510121
3824 1 313.049 8.67521 0.0166937
6223 2 312.264 7.40189 -0.0422085
8643 2 314.495 6.20062 0.20447
1443 1 315.216 7.47239 0.364401
8644 2 314.479 8.69518 0.217451
3843 1 317.35 6.18367 0.637282
8663 2 318.828 6.22627 0.870609
8664 2 318.838 8.71698 0.629716
3844 1 317.387 8.71028 0.429514
6243 2 316.633 7.43602 0.50653
3863 1 321.735 6.22305 0.893601
3864 1 321.746 8.7679 0.694189
6263 2 321.058 7.51651 0.793696
1463 1 319.611 7.48561 0.824915
8683 2 323.202 6.22484 0.948402
6283 2 325.387 7.48696 0.893924
1483 1 323.913 7.47539 0.801812
8684 2 323.206 8.73538 0.656153
3883 1 325.999 6.15316 0.902548
8703 2 327.513 6.17651 0.813004
3884 1 326.144 8.73978 0.734673
1503 1 328.282 7.4358 0.789815
8704 2 327.614 8.7241 0.71159
8723 2 331.977 6.14528 0.803892
3904 1 330.556 8.71986 0.991312
6303 2 329.789 7.4215 0.922639
8724 2 331.987 8.69371 0.929495
3923 1 334.97 6.22166 0.736778
1523 1 332.697 7.44271 0.782396
6323 2 334.151 7.44811 0.797627
3924 1 334.91 8.68815 0.844507
8743 2 336.416 6.16589 0.81454
8744 2 336.359 8.68625 0.711928
1543 1 337.161 7.45828 0.838008
3943 1 339.351 6.20101 0.900517
8763 2 340.787 6.13432 0.923762
3944 1 339.345 8.6515 0.854168
6343 2 338.637 7.455 0.964259
8764 2 340.863 8.66371 0.767088
1563 1 341.547 7.36519 0.867522
6363 2 343.008 7.33665 0.82137
3964 1 343.721 8.61499 0.864469
1583 1 345.908 7.40664 1.18642
8784 2 345.191 8.60327 1.04298
6383 2 347.428 7.4198 1.35604
3983 1 348.126 6.13246 1.41891
8803 2 349.584 6.16311 1.5038
3984 1 348.112 8.67671 1.33907
8804 2 349.595 8.70892 1.32915
1603 1 350.318 7.46385 1.52975
8823 2 353.925 6.25009 1.63616
4003 1 352.418 6.21671 1.62
6403 2 351.754 7.51202 1.5775
4004 1 352.497 8.75545 1.62038
8824 2 353.992 8.76991 1.57172
4023 1 356.869 6.16721 1.83619
6423 2 356.149 7.43605 1.89802
1623 1 354.637 7.50347 1.70402
4024 1 356.908 8.71207 1.8769
8843 2 358.318 6.20508 2.02357
8844 2 358.384 8.73463 2.06633
1643 1 359.101 7.42891 2.07933
8863 2 362.748 6.16646 2.12346
4043 1 361.29 6.14333 2.14057
8864 2 362.795 8.69516 2.14276
4044 1 361.249 8.69965 2.07739
6443 2 360.587 7.42108 2.14806
1663 1 363.547 7.42408 2.16686
4063 1 365.712 6.17994 2.10126
4064 1 365.723 8.73369 2.21274
6463 2 365.001 7.45222 2.1948
8883 2 367.172 6.19416 2.13525
8884 2 367.151 8.72157 2.15286
1683 1 367.892 7.44461 2.08551
6483 2 369.347 7.46468 1.92327
4083 1 370.102 6.27284 1.9722
8903 2 371.571 6.22325 2.0221
4084 1 370.079 8.71294 2.08493
1703 1 372.282 7.45943 2.0287
8904 2 371.557 8.70574 1.9849
4103 1 374.483 6.17092 2.10854
6503 2 373.784 7.45857 2.10056
8924 2 375.926 8.72413 1.96521
4104 1 374.425 8.73582 2.03045
4124 1 378.83 8.63347 2.02686
1723 1 376.63 7.44322 2.05584
6523 2 378.063 7.38067 2.09734
8943 2 380.313 6.14014 1.83433
1743 1 381.035 7.42073 1.72347
8944 2 380.297 8.64832 1.92338
6543 2 382.497 7.37099 1.69698
1763 1 385.389 7.39379 1.5882
4144 1 383.218 8.61898 1.68341
8964 2 384.667 8.67962 1.61291
4163 1 387.604 6.23885 1.53275
6563 2 386.859 7.44279 1.4786
4164 1 387.578 8.74366 1.50829
8983 2 389.019 6.2037 1.32312
6583 2 391.247 7.43289 1.27608
1783 1 389.807 7.45722 1.36839
8984 2 389.041 8.6887 1.50034
4184 1 391.902 8.73444 1.27614
9003 2 393.431 6.1949 1.00018
4183 1 391.998 6.18986 1.14247
9004 2 393.391 8.71467 1.13844
1803 1 394.141 7.44985 1.05586
4203 1 396.373 6.19081 0.716837
9023 2 397.845 6.22195 0.603144
9024 2 397.742 8.77416 0.754049
6603 2 395.6 7.40526 0.935676
4204 1 396.308 8.69644 0.895828
4223 1 400.685 6.27727 0.441727
1823 1 398.527 7.47439 0.595503
6623 2 399.978 7.5539 0.448548
4224 1 400.746 8.79243 0.387887
9043 2 402.19 6.24088 0.39603
6643 2 404.36 7.57239 0.354822
1843 1 402.932 7.51929 0.383722
9044 2 402.201 8.77929 0.304291
4243 1 405.098 6.3075 0.254657
9063 2 406.617 6.26015 0.219503
4244 1 405.115 8.77891 0.153552
9064 2 406.599 8.76079 0.105903
1863 1 407.392 7.48839 0.0638843
4264 1 409.558 8.75231 -0.00723344
6663 2 408.882 7.43566 0.0250305
4723 1 510.465 6.15683 0.101434
7123 2 509.744 7.41923 -0.0274543
4724 1 510.441 8.68764 0.316177
2343 1 512.58 7.39107 0.56876
7143 2 514.089 7.36796 0.733413
9544 2 511.894 8.6673 0.477352
4744 1 514.761 8.63136 0.725533
2363 1 517.044 7.38269 0.876629
9564 2 516.303 8.68014 0.828619
4763 1 519.231 6.18775 1.01998
9583 2 520.685 6.17561 1.14105
4764 1 519.24 8.70345 0.988745
7163 2 518.479 7.43326 0.898774
9584 2 520.688 8.65324 1.05658