# LAMMPS data file written by OVITO Basic 3.11.0

9600 atoms
2 atom types

0.0 522.1920166016 xlo xhi
0.0 50.2479972839 ylo yhi
0.0 20.0 zlo zhi

Masses

1 10.811  # B
2 14.0067  # N

Atoms  # atomic

1 1 1.450518874 2.512399864 0.0
2 1 1.450518874 5.024799728 0.0
3 1 1.450518874 7.537199593 0.0
4 1 1.450518874 10.049599457 0.0
5 1 1.450518874 12.561999321 0.0
6 1 1.450518874 15.074399185 0.0
7 1 1.450518874 17.586799049 0.0
8 1 1.450518874 20.099198914 0.0
9 1 1.450518874 22.611598778 0.0
10 1 1.450518874 25.123998642 0.0
11 1 1.450518874 27.636398506 0.0
12 1 1.450518874 30.14879837 0.0
13 1 1.450518874 32.661198235 0.0
14 1 1.450518874 35.173598099 0.0
15 1 1.450518874 37.685997963 0.0
16 1 1.450518874 40.198397827 0.0
17 1 1.450518874 42.710797691 0.0
18 1 1.450518874 45.223197556 0.0
19 1 1.450518874 47.73559742 0.0
20 1 1.450518874 0.0 0.0
21 1 5.802119012 2.512399864 0.0
22 1 5.802119012 5.024799728 0.0
23 1 5.802119012 7.537199593 0.0
24 1 5.802119012 10.049599457 0.0
25 1 5.802119012 12.561999321 0.0
26 1 5.802119012 15.074399185 0.0
27 1 5.802119012 17.586799049 0.0
28 1 5.802119012 20.099198914 0.0
29 1 5.802119012 22.611598778 0.0
30 1 5.802119012 25.123998642 0.0
31 1 5.802119012 27.636398506 0.0
32 1 5.802119012 30.14879837 0.0
33 1 5.802119012 32.661198235 0.0
34 1 5.802119012 35.173598099 0.0
35 1 5.802119012 37.685997963 0.0
36 1 5.802119012 40.198397827 0.0
37 1 5.802119012 42.710797691 0.0
38 1 5.802119012 45.223197556 0.0
39 1 5.802119012 47.73559742 0.0
40 1 5.802119012 0.0 0.0
41 1 10.153719151 2.512399864 0.0
42 1 10.153719151 5.024799728 0.0
43 1 10.153719151 7.537199593 0.0
44 1 10.153719151 10.049599457 0.0
45 1 10.153719151 12.561999321 0.0
46 1 10.153719151 15.074399185 0.0
47 1 10.153719151 17.586799049 0.0
48 1 10.153719151 20.099198914 0.0
49 1 10.153719151 22.611598778 0.0
50 1 10.153719151 25.123998642 0.0
51 1 10.153719151 27.636398506 0.0
52 1 10.153719151 30.14879837 0.0
53 1 10.153719151 32.661198235 0.0
54 1 10.153719151 35.173598099 0.0
55 1 10.153719151 37.685997963 0.0
56 1 10.153719151 40.198397827 0.0
57 1 10.153719151 42.710797691 0.0
58 1 10.153719151 45.223197556 0.0
59 1 10.153719151 47.73559742 0.0
60 1 10.153719151 0.0 0.0
61 1 14.505319289 2.512399864 0.0
62 1 14.505319289 5.024799728 0.0
63 1 14.505319289 7.537199593 0.0
64 1 14.505319289 10.049599457 0.0
65 1 14.505319289 12.561999321 0.0
66 1 14.505319289 15.074399185 0.0
67 1 14.505319289 17.586799049 0.0
68 1 14.505319289 20.099198914 0.0
69 1 14.505319289 22.611598778 0.0
70 1 14.505319289 25.123998642 0.0
71 1 14.505319289 27.636398506 0.0
72 1 14.505319289 30.14879837 0.0
73 1 14.505319289 32.661198235 0.0
74 1 14.505319289 35.173598099 0.0
75 1 14.505319289 37.685997963 0.0
76 1 14.505319289 40.198397827 0.0
77 1 14.505319289 42.710797691 0.0
78 1 14.505319289 45.223197556 0.0
79 1 14.505319289 47.73559742 0.0
80 1 14.505319289 0.0 0.0
81 1 18.856919428 2.512399864 0.0
82 1 18.856919428 5.024799728 0.0
83 1 18.856919428 7.537199593 0.0
84 1 18.856919428 10.049599457 0.0
85 1 18.856919428 12.561999321 0.0
86 1 18.856919428 15.074399185 0.0
87 1 18.856919428 17.586799049 0.0
88 1 18.856919428 20.099198914 0.0
89 1 18.856919428 22.611598778 0.0
90 1 18.856919428 25.123998642 0.0
91 1 18.856919428 27.636398506 0.0
92 1 18.856919428 30.14879837 0.0
93 1 18.856919428 32.661198235 0.0
94 1 18.856919428 35.173598099 0.0
95 1 18.856919428 37.685997963 0.0
96 1 18.856919428 40.198397827 0.0
97 1 18.856919428 42.710797691 0.0
98 1 18.856919428 45.223197556 0.0
99 1 18.856919428 47.73559742 0.0
100 1 18.856919428 0.0 0.0
101 1 23.208519566 2.512399864 0.0
102 1 23.208519566 5.024799728 0.0
103 1 23.208519566 7.537199593 0.0
104 1 23.208519566 10.049599457 0.0
105 1 23.208519566 12.561999321 0.0
106 1 23.208519566 15.074399185 0.0
107 1 23.208519566 17.586799049 0.0
108 1 23.208519566 20.099198914 0.0
109 1 23.208519566 22.611598778 0.0
110 1 23.208519566 25.123998642 0.0
111 1 23.208519566 27.636398506 0.0
112 1 23.208519566 30.14879837 0.0
113 1 23.208519566 32.661198235 0.0
114 1 23.208519566 35.173598099 0.0
115 1 23.208519566 37.685997963 0.0
116 1 23.208519566 40.198397827 0.0
117 1 23.208519566 42.710797691 0.0
118 1 23.208519566 45.223197556 0.0
119 1 23.208519566 47.73559742 0.0
120 1 23.208519566 0.0 0.0
121 1 27.560119704 2.512399864 0.0
122 1 27.560119704 5.024799728 0.0
123 1 27.560119704 7.537199593 0.0
124 1 27.560119704 10.049599457 0.0
125 1 27.560119704 12.561999321 0.0
126 1 27.560119704 15.074399185 0.0
127 1 27.560119704 17.586799049 0.0
128 1 27.560119704 20.099198914 0.0
129 1 27.560119704 22.611598778 0.0
130 1 27.560119704 25.123998642 0.0
131 1 27.560119704 27.636398506 0.0
132 1 27.560119704 30.14879837 0.0
133 1 27.560119704 32.661198235 0.0
134 1 27.560119704 35.173598099 0.0
135 1 27.560119704 37.685997963 0.0
136 1 27.560119704 40.198397827 0.0
137 1 27.560119704 42.710797691 0.0
138 1 27.560119704 45.223197556 0.0
139 1 27.560119704 47.73559742 0.0
140 1 27.560119704 0.0 0.0
141 1 31.911719843 2.512399864 0.0
142 1 31.911719843 5.024799728 0.0
143 1 31.911719843 7.537199593 0.0
144 1 31.911719843 10.049599457 0.0
145 1 31.911719843 12.561999321 0.0
146 1 31.911719843 15.074399185 0.0
147 1 31.911719843 17.586799049 0.0
148 1 31.911719843 20.099198914 0.0
149 1 31.911719843 22.611598778 0.0
150 1 31.911719843 25.123998642 0.0
151 1 31.911719843 27.636398506 0.0
152 1 31.911719843 30.14879837 0.0
153 1 31.911719843 32.661198235 0.0
154 1 31.911719843 35.173598099 0.0
155 1 31.911719843 37.685997963 0.0
156 1 31.911719843 40.198397827 0.0
157 1 31.911719843 42.710797691 0.0
158 1 31.911719843 45.223197556 0.0
159 1 31.911719843 47.73559742 0.0
160 1 31.911719843 0.0 0.0
161 1 36.263319981 2.512399864 0.0
162 1 36.263319981 5.024799728 0.0
163 1 36.263319981 7.537199593 0.0
164 1 36.263319981 10.049599457 0.0
165 1 36.263319981 12.561999321 0.0
166 1 36.263319981 15.074399185 0.0
167 1 36.263319981 17.586799049 0.0
168 1 36.263319981 20.099198914 0.0
169 1 36.263319981 22.611598778 0.0
170 1 36.263319981 25.123998642 0.0
171 1 36.263319981 27.636398506 0.0
172 1 36.263319981 30.14879837 0.0
173 1 36.263319981 32.661198235 0.0
174 1 36.263319981 35.173598099 0.0
175 1 36.263319981 37.685997963 0.0
176 1 36.263319981 40.198397827 0.0
177 1 36.263319981 42.710797691 0.0
178 1 36.263319981 45.223197556 0.0
179 1 36.263319981 47.73559742 0.0
180 1 36.263319981 0.0 0.0
181 1 40.614920119 2.512399864 0.0
182 1 40.614920119 5.024799728 0.0
183 1 40.614920119 7.537199593 0.0
184 1 40.614920119 10.049599457 0.0
185 1 40.614920119 12.561999321 0.0
186 1 40.614920119 15.074399185 0.0
187 1 40.614920119 17.586799049 0.0
188 1 40.614920119 20.099198914 0.0
189 1 40.614920119 22.611598778 0.0
190 1 40.614920119 25.123998642 0.0
191 1 40.614920119 27.636398506 0.0
192 1 40.614920119 30.14879837 0.0
193 1 40.614920119 32.661198235 0.0
194 1 40.614920119 35.173598099 0.0
195 1 40.614920119 37.685997963 0.0
196 1 40.614920119 40.198397827 0.0
197 1 40.614920119 42.710797691 0.0
198 1 40.614920119 45.223197556 0.0
199 1 40.614920119 47.73559742 0.0
200 1 40.614920119 0.0 0.0
201 1 44.966520258 2.512399864 0.0
202 1 44.966520258 5.024799728 0.0
203 1 44.966520258 7.537199593 0.0
204 1 44.966520258 10.049599457 0.0
205 1 44.966520258 12.561999321 0.0
206 1 44.966520258 15.074399185 0.0
207 1 44.966520258 17.586799049 0.0
208 1 44.966520258 20.099198914 0.0
209 1 44.966520258 22.611598778 0.0
210 1 44.966520258 25.123998642 0.0
211 1 44.966520258 27.636398506 0.0
212 1 44.966520258 30.14879837 0.0
213 1 44.966520258 32.661198235 0.0
214 1 44.966520258 35.173598099 0.0
215 1 44.966520258 37.685997963 0.0
216 1 44.966520258 40.198397827 0.0
217 1 44.966520258 42.710797691 0.0
218 1 44.966520258 45.223197556 0.0
219 1 44.966520258 47.73559742 0.0
220 1 44.966520258 0.0 0.0
221 1 49.318120396 2.512399864 0.0
222 1 49.318120396 5.024799728 0.0
223 1 49.318120396 7.537199593 0.0
224 1 49.318120396 10.049599457 0.0
225 1 49.318120396 12.561999321 0.0
226 1 49.318120396 15.074399185 0.0
227 1 49.318120396 17.586799049 0.0
228 1 49.318120396 20.099198914 0.0
229 1 49.318120396 22.611598778 0.0
230 1 49.318120396 25.123998642 0.0
231 1 49.318120396 27.636398506 0.0
232 1 49.318120396 30.14879837 0.0
233 1 49.318120396 32.661198235 0.0
234 1 49.318120396 35.173598099 0.0
235 1 49.318120396 37.685997963 0.0
236 1 49.318120396 40.198397827 0.0
237 1 49.318120396 42.710797691 0.0
238 1 49.318120396 45.223197556 0.0
239 1 49.318120396 47.73559742 0.0
240 1 49.318120396 0.0 0.0
241 1 53.669720534 2.512399864 0.0
242 1 53.669720534 5.024799728 0.0
243 1 53.669720534 7.537199593 0.0
244 1 53.669720534 10.049599457 0.0
245 1 53.669720534 12.561999321 0.0
246 1 53.669720534 15.074399185 0.0
247 1 53.669720534 17.586799049 0.0
248 1 53.669720534 20.099198914 0.0
249 1 53.669720534 22.611598778 0.0
250 1 53.669720534 25.123998642 0.0
251 1 53.669720534 27.636398506 0.0
252 1 53.669720534 30.14879837 0.0
253 1 53.669720534 32.661198235 0.0
254 1 53.669720534 35.173598099 0.0
255 1 53.669720534 37.685997963 0.0
256 1 53.669720534 40.198397827 0.0
257 1 53.669720534 42.710797691 0.0
258 1 53.669720534 45.223197556 0.0
259 1 53.669720534 47.73559742 0.0
260 1 53.669720534 0.0 0.0
261 1 58.021320673 2.512399864 0.0
262 1 58.021320673 5.024799728 0.0
263 1 58.021320673 7.537199593 0.0
264 1 58.021320673 10.049599457 0.0
265 1 58.021320673 12.561999321 0.0
266 1 58.021320673 15.074399185 0.0
267 1 58.021320673 17.586799049 0.0
268 1 58.021320673 20.099198914 0.0
269 1 58.021320673 22.611598778 0.0
270 1 58.021320673 25.123998642 0.0
271 1 58.021320673 27.636398506 0.0
272 1 58.021320673 30.14879837 0.0
273 1 58.021320673 32.661198235 0.0
274 1 58.021320673 35.173598099 0.0
275 1 58.021320673 37.685997963 0.0
276 1 58.021320673 40.198397827 0.0
277 1 58.021320673 42.710797691 0.0
278 1 58.021320673 45.223197556 0.0
279 1 58.021320673 47.73559742 0.0
280 1 58.021320673 0.0 0.0
281 1 62.372920811 2.512399864 0.0
282 1 62.372920811 5.024799728 0.0
283 1 62.372920811 7.537199593 0.0
284 1 62.372920811 10.049599457 0.0
285 1 62.372920811 12.561999321 0.0
286 1 62.372920811 15.074399185 0.0
287 1 62.372920811 17.586799049 0.0
288 1 62.372920811 20.099198914 0.0
289 1 62.372920811 22.611598778 0.0
290 1 62.372920811 25.123998642 0.0
291 1 62.372920811 27.636398506 0.0
292 1 62.372920811 30.14879837 0.0
293 1 62.372920811 32.661198235 0.0
294 1 62.372920811 35.173598099 0.0
295 1 62.372920811 37.685997963 0.0
296 1 62.372920811 40.198397827 0.0
297 1 62.372920811 42.710797691 0.0
298 1 62.372920811 45.223197556 0.0
299 1 62.372920811 47.73559742 0.0
300 1 62.372920811 0.0 0.0
301 1 66.724520949 2.512399864 0.0
302 1 66.724520949 5.024799728 0.0
303 1 66.724520949 7.537199593 0.0
304 1 66.724520949 10.049599457 0.0
305 1 66.724520949 12.561999321 0.0
306 1 66.724520949 15.074399185 0.0
307 1 66.724520949 17.586799049 0.0
308 1 66.724520949 20.099198914 0.0
309 1 66.724520949 22.611598778 0.0
310 1 66.724520949 25.123998642 0.0
311 1 66.724520949 27.636398506 0.0
312 1 66.724520949 30.14879837 0.0
313 1 66.724520949 32.661198235 0.0
314 1 66.724520949 35.173598099 0.0
315 1 66.724520949 37.685997963 0.0
316 1 66.724520949 40.198397827 0.0
317 1 66.724520949 42.710797691 0.0
318 1 66.724520949 45.223197556 0.0
319 1 66.724520949 47.73559742 0.0
320 1 66.724520949 0.0 0.0
321 1 71.076121088 2.512399864 0.0
322 1 71.076121088 5.024799728 0.0
323 1 71.076121088 7.537199593 0.0
324 1 71.076121088 10.049599457 0.0
325 1 71.076121088 12.561999321 0.0
326 1 71.076121088 15.074399185 0.0
327 1 71.076121088 17.586799049 0.0
328 1 71.076121088 20.099198914 0.0
329 1 71.076121088 22.611598778 0.0
330 1 71.076121088 25.123998642 0.0
331 1 71.076121088 27.636398506 0.0
332 1 71.076121088 30.14879837 0.0
333 1 71.076121088 32.661198235 0.0
334 1 71.076121088 35.173598099 0.0
335 1 71.076121088 37.685997963 0.0
336 1 71.076121088 40.198397827 0.0
337 1 71.076121088 42.710797691 0.0
338 1 71.076121088 45.223197556 0.0
339 1 71.076121088 47.73559742 0.0
340 1 71.076121088 0.0 0.0
341 1 75.427721226 2.512399864 0.0
342 1 75.427721226 5.024799728 0.0
343 1 75.427721226 7.537199593 0.0
344 1 75.427721226 10.049599457 0.0
345 1 75.427721226 12.561999321 0.0
346 1 75.427721226 15.074399185 0.0
347 1 75.427721226 17.586799049 0.0
348 1 75.427721226 20.099198914 0.0
349 1 75.427721226 22.611598778 0.0
350 1 75.427721226 25.123998642 0.0
351 1 75.427721226 27.636398506 0.0
352 1 75.427721226 30.14879837 0.0
353 1 75.427721226 32.661198235 0.0
354 1 75.427721226 35.173598099 0.0
355 1 75.427721226 37.685997963 0.0
356 1 75.427721226 40.198397827 0.0
357 1 75.427721226 42.710797691 0.0
358 1 75.427721226 45.223197556 0.0
359 1 75.427721226 47.73559742 0.0
360 1 75.427721226 0.0 0.0
361 1 79.779321364 2.512399864 0.0
362 1 79.779321364 5.024799728 0.0
363 1 79.779321364 7.537199593 0.0
364 1 79.779321364 10.049599457 0.0
365 1 79.779321364 12.561999321 0.0
366 1 79.779321364 15.074399185 0.0
367 1 79.779321364 17.586799049 0.0
368 1 79.779321364 20.099198914 0.0
369 1 79.779321364 22.611598778 0.0
370 1 79.779321364 25.123998642 0.0
371 1 79.779321364 27.636398506 0.0
372 1 79.779321364 30.14879837 0.0
373 1 79.779321364 32.661198235 0.0
374 1 79.779321364 35.173598099 0.0
375 1 79.779321364 37.685997963 0.0
376 1 79.779321364 40.198397827 0.0
377 1 79.779321364 42.710797691 0.0
378 1 79.779321364 45.223197556 0.0
379 1 79.779321364 47.73559742 0.0
380 1 79.779321364 0.0 0.0
381 1 84.130921503 2.512399864 0.0
382 1 84.130921503 5.024799728 0.0
383 1 84.130921503 7.537199593 0.0
384 1 84.130921503 10.049599457 0.0
385 1 84.130921503 12.561999321 0.0
386 1 84.130921503 15.074399185 0.0
387 1 84.130921503 17.586799049 0.0
388 1 84.130921503 20.099198914 0.0
389 1 84.130921503 22.611598778 0.0
390 1 84.130921503 25.123998642 0.0
391 1 84.130921503 27.636398506 0.0
392 1 84.130921503 30.14879837 0.0
393 1 84.130921503 32.661198235 0.0
394 1 84.130921503 35.173598099 0.0
395 1 84.130921503 37.685997963 0.0
396 1 84.130921503 40.198397827 0.0
397 1 84.130921503 42.710797691 0.0
398 1 84.130921503 45.223197556 0.0
399 1 84.130921503 47.73559742 0.0
400 1 84.130921503 0.0 0.0
401 1 88.482521641 2.512399864 0.0
402 1 88.482521641 5.024799728 0.0
403 1 88.482521641 7.537199593 0.0
404 1 88.482521641 10.049599457 0.0
405 1 88.482521641 12.561999321 0.0
406 1 88.482521641 15.074399185 0.0
407 1 88.482521641 17.586799049 0.0
408 1 88.482521641 20.099198914 0.0
409 1 88.482521641 22.611598778 0.0
410 1 88.482521641 25.123998642 0.0
411 1 88.482521641 27.636398506 0.0
412 1 88.482521641 30.14879837 0.0
413 1 88.482521641 32.661198235 0.0
414 1 88.482521641 35.173598099 0.0
415 1 88.482521641 37.685997963 0.0
416 1 88.482521641 40.198397827 0.0
417 1 88.482521641 42.710797691 0.0
418 1 88.482521641 45.223197556 0.0
419 1 88.482521641 47.73559742 0.0
420 1 88.482521641 0.0 0.0
421 1 92.834121779 2.512399864 0.0
422 1 92.834121779 5.024799728 0.0
423 1 92.834121779 7.537199593 0.0
424 1 92.834121779 10.049599457 0.0
425 1 92.834121779 12.561999321 0.0
426 1 92.834121779 15.074399185 0.0
427 1 92.834121779 17.586799049 0.0
428 1 92.834121779 20.099198914 0.0
429 1 92.834121779 22.611598778 0.0
430 1 92.834121779 25.123998642 0.0
431 1 92.834121779 27.636398506 0.0
432 1 92.834121779 30.14879837 0.0
433 1 92.834121779 32.661198235 0.0
434 1 92.834121779 35.173598099 0.0
435 1 92.834121779 37.685997963 0.0
436 1 92.834121779 40.198397827 0.0
437 1 92.834121779 42.710797691 0.0
438 1 92.834121779 45.223197556 0.0
439 1 92.834121779 47.73559742 0.0
440 1 92.834121779 0.0 0.0
441 1 97.185721918 2.512399864 0.0
442 1 97.185721918 5.024799728 0.0
443 1 97.185721918 7.537199593 0.0
444 1 97.185721918 10.049599457 0.0
445 1 97.185721918 12.561999321 0.0
446 1 97.185721918 15.074399185 0.0
447 1 97.185721918 17.586799049 0.0
448 1 97.185721918 20.099198914 0.0
449 1 97.185721918 22.611598778 0.0
450 1 97.185721918 25.123998642 0.0
451 1 97.185721918 27.636398506 0.0
452 1 97.185721918 30.14879837 0.0
453 1 97.185721918 32.661198235 0.0
454 1 97.185721918 35.173598099 0.0
455 1 97.185721918 37.685997963 0.0
456 1 97.185721918 40.198397827 0.0
457 1 97.185721918 42.710797691 0.0
458 1 97.185721918 45.223197556 0.0
459 1 97.185721918 47.73559742 0.0
460 1 97.185721918 0.0 0.0
461 1 101.537322056 2.512399864 0.0
462 1 101.537322056 5.024799728 0.0
463 1 101.537322056 7.537199593 0.0
464 1 101.537322056 10.049599457 0.0
465 1 101.537322056 12.561999321 0.0
466 1 101.537322056 15.074399185 0.0
467 1 101.537322056 17.586799049 0.0
468 1 101.537322056 20.099198914 0.0
469 1 101.537322056 22.611598778 0.0
470 1 101.537322056 25.123998642 0.0
471 1 101.537322056 27.636398506 0.0
472 1 101.537322056 30.14879837 0.0
473 1 101.537322056 32.661198235 0.0
474 1 101.537322056 35.173598099 0.0
475 1 101.537322056 37.685997963 0.0
476 1 101.537322056 40.198397827 0.0
477 1 101.537322056 42.710797691 0.0
478 1 101.537322056 45.223197556 0.0
479 1 101.537322056 47.73559742 0.0
480 1 101.537322056 0.0 0.0
481 1 105.888922194 2.512399864 0.0
482 1 105.888922194 5.024799728 0.0
483 1 105.888922194 7.537199593 0.0
484 1 105.888922194 10.049599457 0.0
485 1 105.888922194 12.561999321 0.0
486 1 105.888922194 15.074399185 0.0
487 1 105.888922194 17.586799049 0.0
488 1 105.888922194 20.099198914 0.0
489 1 105.888922194 22.611598778 0.0
490 1 105.888922194 25.123998642 0.0
491 1 105.888922194 27.636398506 0.0
492 1 105.888922194 30.14879837 0.0
493 1 105.888922194 32.661198235 0.0
494 1 105.888922194 35.173598099 0.0
495 1 105.888922194 37.685997963 0.0
496 1 105.888922194 40.198397827 0.0
497 1 105.888922194 42.710797691 0.0
498 1 105.888922194 45.223197556 0.0
499 1 105.888922194 47.73559742 0.0
500 1 105.888922194 0.0 0.0
501 1 110.240522333 2.512399864 0.0
502 1 110.240522333 5.024799728 0.0
503 1 110.240522333 7.537199593 0.0
504 1 110.240522333 10.049599457 0.0
505 1 110.240522333 12.561999321 0.0
506 1 110.240522333 15.074399185 0.0
507 1 110.240522333 17.586799049 0.0
508 1 110.240522333 20.099198914 0.0
509 1 110.240522333 22.611598778 0.0
510 1 110.240522333 25.123998642 0.0
511 1 110.240522333 27.636398506 0.0
512 1 110.240522333 30.14879837 0.0
513 1 110.240522333 32.661198235 0.0
514 1 110.240522333 35.173598099 0.0
515 1 110.240522333 37.685997963 0.0
516 1 110.240522333 40.198397827 0.0
517 1 110.240522333 42.710797691 0.0
518 1 110.240522333 45.223197556 0.0
519 1 110.240522333 47.73559742 0.0
520 1 110.240522333 0.0 0.0
521 1 114.592122471 2.512399864 0.0
522 1 114.592122471 5.024799728 0.0
523 1 114.592122471 7.537199593 0.0
524 1 114.592122471 10.049599457 0.0
525 1 114.592122471 12.561999321 0.0
526 1 114.592122471 15.074399185 0.0
527 1 114.592122471 17.586799049 0.0
528 1 114.592122471 20.099198914 0.0
529 1 114.592122471 22.611598778 0.0
530 1 114.592122471 25.123998642 0.0
531 1 114.592122471 27.636398506 0.0
532 1 114.592122471 30.14879837 0.0
533 1 114.592122471 32.661198235 0.0
534 1 114.592122471 35.173598099 0.0
535 1 114.592122471 37.685997963 0.0
536 1 114.592122471 40.198397827 0.0
537 1 114.592122471 42.710797691 0.0
538 1 114.592122471 45.223197556 0.0
539 1 114.592122471 47.73559742 0.0
540 1 114.592122471 0.0 0.0
541 1 118.943722609 2.512399864 0.0
542 1 118.943722609 5.024799728 0.0
543 1 118.943722609 7.537199593 0.0
544 1 118.943722609 10.049599457 0.0
545 1 118.943722609 12.561999321 0.0
546 1 118.943722609 15.074399185 0.0
547 1 118.943722609 17.586799049 0.0
548 1 118.943722609 20.099198914 0.0
549 1 118.943722609 22.611598778 0.0
550 1 118.943722609 25.123998642 0.0
551 1 118.943722609 27.636398506 0.0
552 1 118.943722609 30.14879837 0.0
553 1 118.943722609 32.661198235 0.0
554 1 118.943722609 35.173598099 0.0
555 1 118.943722609 37.685997963 0.0
556 1 118.943722609 40.198397827 0.0
557 1 118.943722609 42.710797691 0.0
558 1 118.943722609 45.223197556 0.0
559 1 118.943722609 47.73559742 0.0
560 1 118.943722609 0.0 0.0
561 1 123.295322748 2.512399864 0.0
562 1 123.295322748 5.024799728 0.0
563 1 123.295322748 7.537199593 0.0
564 1 123.295322748 10.049599457 0.0
565 1 123.295322748 12.561999321 0.0
566 1 123.295322748 15.074399185 0.0
567 1 123.295322748 17.586799049 0.0
568 1 123.295322748 20.099198914 0.0
569 1 123.295322748 22.611598778 0.0
570 1 123.295322748 25.123998642 0.0
571 1 123.295322748 27.636398506 0.0
572 1 123.295322748 30.14879837 0.0
573 1 123.295322748 32.661198235 0.0
574 1 123.295322748 35.173598099 0.0
575 1 123.295322748 37.685997963 0.0
576 1 123.295322748 40.198397827 0.0
577 1 123.295322748 42.710797691 0.0
578 1 123.295322748 45.223197556 0.0
579 1 123.295322748 47.73559742 0.0
580 1 123.295322748 0.0 0.0
581 1 127.646922886 2.512399864 0.0
582 1 127.646922886 5.024799728 0.0
583 1 127.646922886 7.537199593 0.0
584 1 127.646922886 10.049599457 0.0
585 1 127.646922886 12.561999321 0.0
586 1 127.646922886 15.074399185 0.0
587 1 127.646922886 17.586799049 0.0
588 1 127.646922886 20.099198914 0.0
589 1 127.646922886 22.611598778 0.0
590 1 127.646922886 25.123998642 0.0
591 1 127.646922886 27.636398506 0.0
592 1 127.646922886 30.14879837 0.0
593 1 127.646922886 32.661198235 0.0
594 1 127.646922886 35.173598099 0.0
595 1 127.646922886 37.685997963 0.0
596 1 127.646922886 40.198397827 0.0
597 1 127.646922886 42.710797691 0.0
598 1 127.646922886 45.223197556 0.0
599 1 127.646922886 47.73559742 0.0
600 1 127.646922886 0.0 0.0
601 1 131.998523025 2.512399864 0.0
602 1 131.998523025 5.024799728 0.0
603 1 131.998523025 7.537199593 0.0
604 1 131.998523025 10.049599457 0.0
605 1 131.998523025 12.561999321 0.0
606 1 131.998523025 15.074399185 0.0
607 1 131.998523025 17.586799049 0.0
608 1 131.998523025 20.099198914 0.0
609 1 131.998523025 22.611598778 0.0
610 1 131.998523025 25.123998642 0.0
611 1 131.998523025 27.636398506 0.0
612 1 131.998523025 30.14879837 0.0
613 1 131.998523025 32.661198235 0.0
614 1 131.998523025 35.173598099 0.0
615 1 131.998523025 37.685997963 0.0
616 1 131.998523025 40.198397827 0.0
617 1 131.998523025 42.710797691 0.0
618 1 131.998523025 45.223197556 0.0
619 1 131.998523025 47.73559742 0.0
620 1 131.998523025 0.0 0.0
621 1 136.350123163 2.512399864 0.0
622 1 136.350123163 5.024799728 0.0
623 1 136.350123163 7.537199593 0.0
624 1 136.350123163 10.049599457 0.0
625 1 136.350123163 12.561999321 0.0
626 1 136.350123163 15.074399185 0.0
627 1 136.350123163 17.586799049 0.0
628 1 136.350123163 20.099198914 0.0
629 1 136.350123163 22.611598778 0.0
630 1 136.350123163 25.123998642 0.0
631 1 136.350123163 27.636398506 0.0
632 1 136.350123163 30.14879837 0.0
633 1 136.350123163 32.661198235 0.0
634 1 136.350123163 35.173598099 0.0
635 1 136.350123163 37.685997963 0.0
636 1 136.350123163 40.198397827 0.0
637 1 136.350123163 42.710797691 0.0
638 1 136.350123163 45.223197556 0.0
639 1 136.350123163 47.73559742 0.0
640 1 136.350123163 0.0 0.0
641 1 140.701723301 2.512399864 0.0
642 1 140.701723301 5.024799728 0.0
643 1 140.701723301 7.537199593 0.0
644 1 140.701723301 10.049599457 0.0
645 1 140.701723301 12.561999321 0.0
646 1 140.701723301 15.074399185 0.0
647 1 140.701723301 17.586799049 0.0
648 1 140.701723301 20.099198914 0.0
649 1 140.701723301 22.611598778 0.0
650 1 140.701723301 25.123998642 0.0
651 1 140.701723301 27.636398506 0.0
652 1 140.701723301 30.14879837 0.0
653 1 140.701723301 32.661198235 0.0
654 1 140.701723301 35.173598099 0.0
655 1 140.701723301 37.685997963 0.0
656 1 140.701723301 40.198397827 0.0
657 1 140.701723301 42.710797691 0.0
658 1 140.701723301 45.223197556 0.0
659 1 140.701723301 47.73559742 0.0
660 1 140.701723301 0.0 0.0
661 1 145.05332344 2.512399864 0.0
662 1 145.05332344 5.024799728 0.0
663 1 145.05332344 7.537199593 0.0
664 1 145.05332344 10.049599457 0.0
665 1 145.05332344 12.561999321 0.0
666 1 145.05332344 15.074399185 0.0
667 1 145.05332344 17.586799049 0.0
668 1 145.05332344 20.099198914 0.0
669 1 145.05332344 22.611598778 0.0
670 1 145.05332344 25.123998642 0.0
671 1 145.05332344 27.636398506 0.0
672 1 145.05332344 30.14879837 0.0
673 1 145.05332344 32.661198235 0.0
674 1 145.05332344 35.173598099 0.0
675 1 145.05332344 37.685997963 0.0
676 1 145.05332344 40.198397827 0.0
677 1 145.05332344 42.710797691 0.0
678 1 145.05332344 45.223197556 0.0
679 1 145.05332344 47.73559742 0.0
680 1 145.05332344 0.0 0.0
681 1 149.404923578 2.512399864 0.0
682 1 149.404923578 5.024799728 0.0
683 1 149.404923578 7.537199593 0.0
684 1 149.404923578 10.049599457 0.0
685 1 149.404923578 12.561999321 0.0
686 1 149.404923578 15.074399185 0.0
687 1 149.404923578 17.586799049 0.0
688 1 149.404923578 20.099198914 0.0
689 1 149.404923578 22.611598778 0.0
690 1 149.404923578 25.123998642 0.0
691 1 149.404923578 27.636398506 0.0
692 1 149.404923578 30.14879837 0.0
693 1 149.404923578 32.661198235 0.0
694 1 149.404923578 35.173598099 0.0
695 1 149.404923578 37.685997963 0.0
696 1 149.404923578 40.198397827 0.0
697 1 149.404923578 42.710797691 0.0
698 1 149.404923578 45.223197556 0.0
699 1 149.404923578 47.73559742 0.0
700 1 149.404923578 0.0 0.0
701 1 153.756523716 2.512399864 0.0
702 1 153.756523716 5.024799728 0.0
703 1 153.756523716 7.537199593 0.0
704 1 153.756523716 10.049599457 0.0
705 1 153.756523716 12.561999321 0.0
706 1 153.756523716 15.074399185 0.0
707 1 153.756523716 17.586799049 0.0
708 1 153.756523716 20.099198914 0.0
709 1 153.756523716 22.611598778 0.0
710 1 153.756523716 25.123998642 0.0
711 1 153.756523716 27.636398506 0.0
712 1 153.756523716 30.14879837 0.0
713 1 153.756523716 32.661198235 0.0
714 1 153.756523716 35.173598099 0.0
715 1 153.756523716 37.685997963 0.0
716 1 153.756523716 40.198397827 0.0
717 1 153.756523716 42.710797691 0.0
718 1 153.756523716 45.223197556 0.0
719 1 153.756523716 47.73559742 0.0
720 1 153.756523716 0.0 0.0
721 1 158.108123855 2.512399864 0.0
722 1 158.108123855 5.024799728 0.0
723 1 158.108123855 7.537199593 0.0
724 1 158.108123855 10.049599457 0.0
725 1 158.108123855 12.561999321 0.0
726 1 158.108123855 15.074399185 0.0
727 1 158.108123855 17.586799049 0.0
728 1 158.108123855 20.099198914 0.0
729 1 158.108123855 22.611598778 0.0
730 1 158.108123855 25.123998642 0.0
731 1 158.108123855 27.636398506 0.0
732 1 158.108123855 30.14879837 0.0
733 1 158.108123855 32.661198235 0.0
734 1 158.108123855 35.173598099 0.0
735 1 158.108123855 37.685997963 0.0
736 1 158.108123855 40.198397827 0.0
737 1 158.108123855 42.710797691 0.0
738 1 158.108123855 45.223197556 0.0
739 1 158.108123855 47.73559742 0.0
740 1 158.108123855 0.0 0.0
741 1 162.459723993 2.512399864 0.0
742 1 162.459723993 5.024799728 0.0
743 1 162.459723993 7.537199593 0.0
744 1 162.459723993 10.049599457 0.0
745 1 162.459723993 12.561999321 0.0
746 1 162.459723993 15.074399185 0.0
747 1 162.459723993 17.586799049 0.0
748 1 162.459723993 20.099198914 0.0
749 1 162.459723993 22.611598778 0.0
750 1 162.459723993 25.123998642 0.0
751 1 162.459723993 27.636398506 0.0
752 1 162.459723993 30.14879837 0.0
753 1 162.459723993 32.661198235 0.0
754 1 162.459723993 35.173598099 0.0
755 1 162.459723993 37.685997963 0.0
756 1 162.459723993 40.198397827 0.0
757 1 162.459723993 42.710797691 0.0
758 1 162.459723993 45.223197556 0.0
759 1 162.459723993 47.73559742 0.0
760 1 162.459723993 0.0 0.0
761 1 166.811324131 2.512399864 0.0
762 1 166.811324131 5.024799728 0.0
763 1 166.811324131 7.537199593 0.0
764 1 166.811324131 10.049599457 0.0
765 1 166.811324131 12.561999321 0.0
766 1 166.811324131 15.074399185 0.0
767 1 166.811324131 17.586799049 0.0
768 1 166.811324131 20.099198914 0.0
769 1 166.811324131 22.611598778 0.0
770 1 166.811324131 25.123998642 0.0
771 1 166.811324131 27.636398506 0.0
772 1 166.811324131 30.14879837 0.0
773 1 166.811324131 32.661198235 0.0
774 1 166.811324131 35.173598099 0.0
775 1 166.811324131 37.685997963 0.0
776 1 166.811324131 40.198397827 0.0
777 1 166.811324131 42.710797691 0.0
778 1 166.811324131 45.223197556 0.0
779 1 166.811324131 47.73559742 0.0
780 1 166.811324131 0.0 0.0
781 1 171.16292427 2.512399864 0.0
782 1 171.16292427 5.024799728 0.0
783 1 171.16292427 7.537199593 0.0
784 1 171.16292427 10.049599457 0.0
785 1 171.16292427 12.561999321 0.0
786 1 171.16292427 15.074399185 0.0
787 1 171.16292427 17.586799049 0.0
788 1 171.16292427 20.099198914 0.0
789 1 171.16292427 22.611598778 0.0
790 1 171.16292427 25.123998642 0.0
791 1 171.16292427 27.636398506 0.0
792 1 171.16292427 30.14879837 0.0
793 1 171.16292427 32.661198235 0.0
794 1 171.16292427 35.173598099 0.0
795 1 171.16292427 37.685997963 0.0
796 1 171.16292427 40.198397827 0.0
797 1 171.16292427 42.710797691 0.0
798 1 171.16292427 45.223197556 0.0
799 1 171.16292427 47.73559742 0.0
800 1 171.16292427 0.0 0.0
801 1 175.514524408 2.512399864 0.0
802 1 175.514524408 5.024799728 0.0
803 1 175.514524408 7.537199593 0.0
804 1 175.514524408 10.049599457 0.0
805 1 175.514524408 12.561999321 0.0
806 1 175.514524408 15.074399185 0.0
807 1 175.514524408 17.586799049 0.0
808 1 175.514524408 20.099198914 0.0
809 1 175.514524408 22.611598778 0.0
810 1 175.514524408 25.123998642 0.0
811 1 175.514524408 27.636398506 0.0
812 1 175.514524408 30.14879837 0.0
813 1 175.514524408 32.661198235 0.0
814 1 175.514524408 35.173598099 0.0
815 1 175.514524408 37.685997963 0.0