9600
 Atoms. Timestep: 0
1 -0.705745 2.2222 19.5471
1 -0.749794 4.79995 19.4776
1 -0.742883 7.42877 19.5102
1 -0.716906 9.86963 19.7194
1 -0.727087 12.4048 19.7464
1 -0.721994 14.9208 19.8308
1 -0.725958 17.4561 19.8855
1 -0.664519 20.0669 19.891
1 -0.600332 22.5638 19.9417
1 -0.672477 25.1397 0.0119031
1 -0.718017 27.6893 0.174732
1 -0.652195 30.2082 0.254541
1 -0.699341 32.7194 0.29039
1 -0.709767 35.2845 0.260259
1 -0.671618 37.8062 0.116675
1 -0.69163 40.3177 0.196838
1 -0.637768 42.8645 0.172306
1 -0.619786 45.4306 0.0448007
1 -0.659042 47.8893 19.9559
1 -0.744025 50.3905 19.6427
1 3.70715 2.25796 19.1326
1 3.58694 4.82391 19.0629
1 3.61375 7.30656 19.0087
1 3.65291 9.78731 19.1193
1 3.65985 12.3679 19.2798
1 3.70664 14.9221 19.519
1 3.62038 17.4365 19.5437
1 3.66161 19.9772 19.7036
1 3.66642 22.5474 19.6676
1 3.70066 25.0688 19.8351
1 3.70506 27.6712 19.918
1 3.65458 30.1785 20.0138
1 3.76594 32.6892 20.0332
1 3.68906 35.2324 19.9098
1 3.71903 37.765 19.8773
1 3.70829 40.3084 19.8582
1 3.77561 42.8662 19.7771
1 3.65094 45.4034 19.7403
1 3.68292 47.8875 19.4213
1 3.69755 50.3693 19.3908
1 8.092 2.24001 18.6075
1 8.02438 4.77139 18.6583
1 8.01695 7.28939 18.7626
1 8.07413 9.82798 19.0234
1 8.02195 12.3581 19.1781
1 8.06051 14.8847 19.2765
1 8.09442 17.4759 19.2951
1 8.03151 19.89 19.3966
1 8.0762 22.5701 19.3798
1 8.05226 25.0856 19.2593
1 8.04212 27.6295 19.4465
1 8.07265 30.1309 19.392
1 8.10977 32.7213 19.4467
1 8.11925 35.1902 19.4358
1 8.12659 37.722 19.4051
1 8.10324 40.2418 19.4706
1 8.09886 42.7432 19.3427
1 8.0158 45.2906 19.0123
1 8.13245 47.8497 18.9384
1 8.12713 50.3552 18.7442
1 12.402 2.16594 18.8034
1 12.4484 4.76401 18.84
1 12.4936 7.32888 18.861
1 12.4251 9.7896 18.7374
1 12.3903 12.3514 18.8915
1 12.4494 14.8365 19.1478
1 12.4828 17.3398 18.9963
1 12.4945 19.9577 19.12
1 12.4562 22.4611 19.1192
1 12.4012 24.9762 19.0143
1 12.4548 27.5884 18.8865
1 12.4849 30.1519 18.6831
1 12.4974 32.7154 18.7108
1 12.582 35.2106 19.0448
1 12.5134 37.7139 19.233
1 12.5686 40.1756 19.3159
1 12.4329 42.6202 18.9582
1 12.4539 45.2025 18.7589
1 12.4181 47.7682 18.7295
1 12.4738 50.3411 18.7013
1 16.8178 2.15041 18.5925
1 16.9033 4.71254 18.5209
1 16.7666 7.25026 18.6506
1 16.8479 9.78682 18.5822
1 16.8174 12.3232 18.6243
1 16.7773 14.8437 18.6649
1 16.8895 17.3728 18.8292
1 16.8246 19.9851 18.8433
1 16.8767 22.4286 18.9473
1 16.8843 24.9658 18.8862
1 16.8517 27.5769 18.9581
1 16.8386 30.109 18.7271
1 16.953 32.5858 18.7026
1 16.922 35.0875 18.9081
1 16.9367 37.6561 18.8558
1 16.8465 40.1268 18.6581
1 16.8733 42.7177 18.4192
1 16.8058 45.185 18.3838
1 16.8659 47.7644 18.3964
1 16.8715 50.2696 18.5935
1 21.2896 2.12621 18.5265
1 21.261 4.6848 18.4399
1 21.2327 7.17001 18.2324
1 21.2984 9.7404 18.2822
1 21.2172 12.3326 18.2955
1 21.191 14.8092 18.5389
1 21.1841 17.3418 18.6154
1 21.2824 19.965 18.7807
1 21.2896 22.4461 18.8821
1 21.2046 24.8949 18.8666
1 21.2681 27.4415 18.9119
1 21.2965 29.9715 18.8133
1 21.2615 32.5002 18.7738
1 21.3076 35.1082 18.7856
1 21.2938 37.6206 18.9575
1 21.2831 40.1907 18.7856
1 21.2898 42.712 18.6045
1 21.2842 45.2779 18.4647
1 21.2983 47.7656 18.3401
1 21.2863 50.3092 18.4526
1 25.6604 2.17928 18.4868
1 25.6965 4.70262 18.3555
1 25.7068 7.21215 18.2577
1 25.6807 9.76142 18.2566
1 25.6463 12.3111 18.5983
1 25.6082 14.8067 18.6551
1 25.6007 17.3079 18.8207
1 25.6059 19.8179 18.9492
1 25.7043 22.4698 18.997
1 25.6238 24.9369 18.9346
1 25.6556 27.4705 18.9248
1 25.6819 30.0138 18.9022
1 25.6317 32.5376 18.92
1 25.7071 35.0291 18.9183
1 25.747 37.6456 18.9157
1 25.794 40.141 18.791
1 25.6777 42.6936 18.5523
1 25.7004 45.2434 18.4493
1 25.6826 47.7709 18.434
1 25.6632 50.2908 18.374
1 30.1887 2.24942 18.4481
1 30.0622 4.75193 18.467
1 30.0817 7.29034 18.4925
1 30.1075 9.79 18.436
1 30.0439 12.3201 18.66
1 30.031 14.8938 18.7473
1 29.979 17.3698 18.8744
1 30.0296 19.9115 18.96
1 30.065 22.3888 19.0267
1 30.0698 24.8686 19.055
1 30.0442 27.5104 18.9637
1 30.0449 30.0423 19.1653
1 30.0582 32.6155 19.1403
1 30.0528 35.0909 19.0997
1 30.0875 37.6142 19.0316
1 30.1655 40.1364 18.731
1 30.1391 42.667 18.7292
1 30.1231 45.2508 18.7167
1 30.1415 47.7868 18.5712
1 30.1439 50.3551 18.5425
1 34.481 2.2701 18.7489
1 34.4978 4.77471 18.745
1 34.4777 7.34791 18.8077
1 34.3847 9.85793 18.9565
1 34.4814 12.3965 18.8852
1 34.4898 14.8999 18.8006
1 34.4563 17.3614 18.8873
1 34.4668 19.9152 18.8375
1 34.4225 22.4349 18.9869
1 34.4788 25.0046 19.213
1 34.3522 27.5591 19.2793
1 34.4122 30.0711 19.3737
1 34.4856 32.5849 19.533
1 34.4573 35.101 19.3304
1 34.4609 37.6338 19.3813
1 34.522 40.1417 19.2593
1 34.5411 42.7394 19.1006
1 34.489 45.2973 19.0311
1 34.5477 47.8665 18.9263
1 34.4868 50.3618 18.9522
1 38.9478 2.24271 18.9807
1 38.8917 4.73666 18.8604
1 38.8675 7.26587 18.9547
1 38.8342 9.77197 18.9924
1 38.8988 12.3056 18.8238
1 38.8525 14.882 18.8405
1 38.8549 17.4395 18.9559
1 38.8826 19.9262 19.3215
1 38.8569 22.4889 19.3202
1 38.8548 25.042 19.499
1 38.773 27.5178 19.7623
1 38.7383 30.0443 19.7828
1 38.8122 32.5794 19.5673
1 38.8221 35.1306 19.4408
1 38.8991 37.6607 19.2404
1 38.8709 40.2518 19.1576
1 38.8494 42.7536 19.1623
1 38.8708 45.3312 19.1775
1 38.8744 47.8306 19.1458
1 38.9188 50.3794 19.0689
1 43.2978 2.24349 19.3215
1 43.303 4.82864 18.9845
1 43.2975 7.32767 18.7299
1 43.2749 9.81401 18.7942
1 43.2242 12.3477 19.0738
1 43.2092 14.8694 19.2874
1 43.2706 17.4431 19.2588
1 43.2808 19.9505 19.377
1 43.2294 22.4731 19.521
1 43.1789 25.0101 19.77
1 43.2235 27.6046 19.8073
1 43.2407 30.0581 19.8419
1 43.1565 32.6064 19.6712
1 43.2142 35.1512 19.5707
1 43.1823 37.6518 19.2476
1 43.2131 40.2273 19.0496
1 43.2362 42.8052 19.25
1 43.3278 45.3073 19.2074
1 43.2764 47.843 19.2928
1 43.2979 50.3953 19.2434
1 47.6503 2.25588 19.7302
1 47.6901 4.77145 19.439
1 47.6674 7.29952 19.1859
1 47.6647 9.89809 19.0596
1 47.7069 12.3977 18.9638
1 47.6464 14.9063 19.1496
1 47.6516 17.4453 19.2728
1 47.6548 20.0309 19.2954
1 47.6016 22.5268 19.4292
1 47.5954 25.1009 19.6916
1 47.5732 27.5329 19.9085
1 47.5731 30.1183 19.9775
1 47.5908 32.6362 19.8169
1 47.552 35.2244 19.7121
1 47.602 37.7681 19.6812
1 47.6572 40.2694 19.6572
1 47.6647 42.7808 19.7611
1 47.665 45.305 19.6753
1 47.7087 47.8847 19.7854
1 47.6248 50.3861 19.7701
1 52.024 2.36879 0.0401319
1 52.0264 4.90531 19.9591
1 52.0383 7.39444 19.6871
1 52.0507 9.79121 19.3536
1 52.131 12.4587 19.0611
1 52.019 14.9583 18.9758
1 52.066 17.4982 19.0703
1 52.0365 20.0313 19.1587
1 52.0088 22.5647 19.3387
1 52.0125 25.0893 19.6059
1 51.94 27.5867 19.7302
1 51.9618 30.1486 19.9225
1 51.9348 32.6673 19.9216
1 51.9973 35.1798 19.9139
1 51.9606 37.7254 19.9133
1 52.0251 40.2351 20
1 52.0603 42.8426 0.001508
1 51.9925 45.3299 0.284134
1 52.0321 47.9028 0.279326
1 52.0352 -0.207002 0.206401
1 56.3346 2.36068 0.304006
1 56.4332 4.87827 0.14354
1 56.448 7.39548 20.0491
1 56.4114 9.88962 19.704
1 56.4524 12.4053 19.4211
1 56.4095 14.9635 19.3103
1 56.4206 17.4259 19.212
1 56.4385 19.917 19.3257
1 56.3603 22.4926 19.5832
1 56.3572 24.9967 19.7453
1 56.3403 27.5391 19.8381
1 56.3703 30.1018 19.8935
1 56.4168 32.5973 19.967
1 56.4312 35.1253 -0.0109464
1 56.303 37.6702 0.274725
1 56.3344 40.2214 0.384978
1 56.3169 42.7482 0.819465
1 56.3551 45.2979 0.731732
1 56.3845 47.9272 0.494961
1 56.4523 -0.194947 0.406662
1 60.7896 2.31273 0.589978
1 60.8151 4.8403 0.463566
1 60.7582 7.34319 0.175176
1 60.8512 9.87751 -0.057115
1 60.7603 12.3795 19.8516
1 60.8329 14.8903 19.6052
1 60.7738 17.3978 19.4609
1 60.7421 19.9239 19.8566
1 60.7964 22.4879 20.0704
1 60.8222 24.977 20.0313
1 60.6835 27.5603 20.0115
1 60.7804 30.0943 20.0086
1 60.8004 32.6181 20.0675
1 60.7471 35.1675 20.0741
1 60.6878 37.6634 0.21607
1 60.7149 40.2102 0.609845
1 60.7294 42.7279 0.799549
1 60.6825 45.3409 0.753592
1 60.7324 47.849 0.73925
1 60.757 50.4402 0.724251
1 65.1198 2.28351 0.760531
1 65.1535 4.76836 0.59076
1 65.1343 7.34932 0.550481
1 65.1757 9.90394 0.41644
1 65.15 12.3984 -0.0332548
1 65.1384 14.8969 19.8924
1 65.1937 17.4393 19.8218
1 65.1441 19.9686 19.865
1 65.2112 22.5204 -0.0593643
1 65.1264 25.0493 0.0680733
1 65.1123 27.5666 0.314064
1 65.1351 30.0809 0.18633
1 65.0989 32.6261 0.370224
1 65.1188 35.1685 0.516747
1 65.0752 37.7089 0.547198
1 65.1111 40.2825 0.738283
1 65.1203 42.7794 0.713152
1 65.1097 45.2938 0.751734
1 65.0888 47.8033 0.814453
1 65.1812 50.3513 0.938525
1 69.4733 2.21988 0.686407
1 69.5056 4.77416 0.549311
1 69.5287 7.22913 0.484136
1 69.4961 9.73423 0.313691
1 69.5065 12.2674 0.0360138
1 69.5174 14.8566 -0.00310325
1 69.5061 17.4299 -0.0272256
1 69.5565 19.9832 0.00414279
1 69.5436 22.4963 0.130364
1 69.5387 24.9743 0.041257
1 69.461 27.545 0.124834
1 69.495 30.1164 0.379833
1 69.5318 32.6254 0.664171
1 69.5037 35.1005 0.792521
1 69.4924 37.6155 0.811421
1 69.5265 40.1999 0.699077
1 69.5627 42.7553 0.698526
1 69.4699 45.2814 0.575676
1 69.5121 47.7582 0.731211
1 69.5371 50.345 0.792319
1 73.8739 2.25376 0.62455
1 73.9225 4.7704 0.45902
1 73.8796 7.32883 0.458395
1 73.8895 9.82767 0.0476501
1 73.8483 12.3726 20.0816
1 73.9463 14.9173 0.0109676
1 73.934 17.4743 0.172577
1 73.9217 19.9636 0.404944
1 73.9379 22.4983 0.390246
1 73.9373 25.0376 0.213732
1 73.8908 27.5538 0.106343
1 73.8797 30.0795 0.355247
1 74.0159 32.5831 0.609013
1 73.8909 35.1033 0.590614
1 73.9272 37.6112 0.75168
1 73.9204 40.1276 0.688315
1 73.9682 42.626 0.632878
1 73.872 45.2362 0.543289
1 73.8525 47.7597 0.659115
1 73.8669 50.3255 0.655133
1 78.2518 2.14866 0.556701
1 78.2356 4.6999 0.553279
1 78.3057 7.22769 0.256677
1 78.3365 9.7543 0.0611494
1 78.2569 12.3429 0.154633
1 78.318 14.8435 0.269765
1 78.2585 17.4772 0.424024
1 78.2375 19.9951 0.582405
1 78.3378 22.5443 0.607772
1 78.3057 25.1018 0.565807
1 78.285 27.4857 0.292709
1 78.3102 30.0206 0.330704
1 78.3422 32.5684 0.506313
1 78.3425 35.12 0.610909
1 78.3022 37.6728 0.686112
1 78.3073 40.1901 0.674461
1 78.1575 42.7096 0.59295
1 78.2227 45.2337 0.728888
1 78.2403 47.7633 0.645335
1 78.2493 50.2829 0.544136
1 82.7311 2.19758 0.446573
1 82.6819 4.75763 0.243008
1 82.6258 7.24877 0.153365
1 82.6986 9.80782 0.119593
1 82.6997 12.3232 -0.0184734
1 82.6798 14.8796 -0.018231
1 82.692 17.4203 0.196735
1 82.7146 19.9119 0.403057
1 82.6764 22.5106 0.520152
1 82.7066 25.0907 0.526258
1 82.744 27.5593 0.361458
1 82.7927 30.076 0.291751
1 82.7726 32.5612 0.355019
1 82.7121 35.1862 0.364137
1 82.6675 37.6634 0.391805
1 82.6591 40.2098 0.644045
1 82.6281 42.7689 0.658703
1 82.6022 45.2728 0.652714
1 82.6517 47.8012 0.600141
1 82.6747 50.3427 0.547252
1 86.9917 2.25315 0.394092
1 87.0433 4.76459 0.415998
1 87.0736 7.24623 0.191693
1 87.1077 9.78425 0.258408
1 87.106 12.3782 0.198414
1 87.0596 14.9176 0.109904
1 87.0522 17.454 0.23183
1 87.114 20.0318 0.26773
1 87.1408 22.5495 0.248763
1 87.1115 25.0307 0.298563
1 87.0952 27.5587 0.387832
1 87.1186 30.0794 0.519316
1 87.1922 32.5864 0.438408
1 87.1183 35.092 0.447259
1 87.0406 37.6794 0.474316
1 87.0701 40.1843 0.564715
1 87.0159 42.7528 0.711394
1 87.055 45.2655 0.635973
1 87.0154 47.7824 0.388084
1 87.0586 50.3331 0.417401
1 91.4102 2.24057 0.391588
1 91.4699 4.79914 0.221013
1 91.4203 7.22409 0.143708
1 91.4193 9.78712 0.0862381
1 91.5058 12.2973 0.0780904
1 91.4558 14.8966 -0.0467369
1 91.4882 17.3788 0.0363061
1 91.4875 19.9075 0.270017
1 91.4839 22.4295 0.352026
1 91.546 25.0643 0.411488
1 91.5247 27.5413 0.765573
1 91.5153 30.1109 0.92193
1 91.523 32.6543 0.789524
1 91.5277 35.2097 0.699555
1 91.5181 37.7269 0.764896
1 91.4377 40.1904 0.85377
1 91.4811 42.7566 0.804577
1 91.4226 45.3413 0.617995
1 91.4556 47.8343 0.3855
1 91.4035 50.384 0.478921
1 95.8427 2.24736 0.339124
1 95.8223 4.73744 0.162894
1 95.8747 7.31679 -0.0301728
1 95.799 9.87409 19.9984
1 95.8654 12.3531 19.8078
1 95.7973 14.8931 19.9607
1 95.9308 17.478 19.9332
1 95.903 19.8982 0.0055119
1 95.985 22.4407 0.118584
1 95.8888 24.9795 0.28653
1 95.9565 27.5248 0.582747
1 95.9471 30.0539 0.793824
1 95.9961 32.5886 0.814965
1 95.9564 35.166 0.85194
1 95.8411 37.706 0.85422
1 95.8827 40.2414 0.996707
1 95.8768 42.8221 0.886007
1 95.7838 45.2867 0.78997
1 95.7493 47.7982 0.53772
1 95.8091 50.411 0.373759
1 100.219 2.23947 0.00918474
1 100.22 4.75004 20.0622
1 100.271 7.28007 19.9643
1 100.297 9.73207 19.8543
1 100.27 12.3004 19.9002
1 100.229 14.8706 19.9474
1 100.264 17.4307 19.7749
1 100.356 19.9943 19.7435
1 100.356 22.5435 19.7579
1 100.314 25.0192 -0.0539814
1 100.324 27.5209 0.275819
1 100.285 30.0156 0.458136
1 100.256 32.6004 0.473044
1 100.274 35.1334 0.670203
1 100.309 37.6712 0.850594
1 100.209 40.1994 0.973162
1 100.239 42.7371 0.997918
1 100.202 45.2433 0.822069
1 100.17 47.8444 0.551149
1 100.119 50.3801 0.160614
1 104.647 2.12968 -0.0822689
1 104.634 4.68531 19.7723
1 104.592 7.19807 19.7304
1 104.719 9.77283 19.7083
1 104.724 12.3077 19.6096
1 104.677 14.8133 19.7688
1 104.671 17.3947 19.6346
1 104.687 19.9894 19.72
1 104.693 22.5329 19.8019
1 104.664 25.02 19.9703
1 104.711 27.5656 0.0331079
1 104.636 30.122 0.185835
1 104.58 32.6871 0.275342
1 104.635 35.2071 0.267615
1 104.69 37.681 0.503577
1 104.595 40.2183 0.58464
1 104.636 42.7279 0.66865
1 104.563 45.2615 0.594186
1 104.591 47.7943 0.397743
1 104.582 50.3504 0.109052
1 109.136 2.22679 20.0324
1 109.077 4.69388 19.7728
1 109.083 7.1853 19.5791
1 109.087 9.70463 19.6291
1 109.133 12.2269 19.5622
1 109.055 14.8018 19.3899
1 108.99 17.3955 19.5708
1 109.033 19.8965 19.8563
1 109.101 22.4298 19.9033
1 109.059 24.9732 19.9968
1 108.999 27.5507 -0.0426732
1 109.051 30.1054 -0.0808307
1 109.102 32.5891 0.0989821
1 109.046 35.1011 0.317275
1 109.072 37.6269 0.54503
1 109.03 40.1372 0.515116
1 109.041 42.6706 0.618853
1 109.03 45.1995 0.400367
1 108.945 47.7612 0.226385
1 109.027 50.3075 -0.0577687
1 113.418 2.11135 19.9568
1 113.425 4.6185 19.7756
1 113.402 7.18128 19.6113
1 113.388 9.66065 19.4004
1 113.489 12.2606 19.3194
1 113.431 14.8165 19.3659
1 113.36 17.3562 19.4301
1 113.5 19.9125 19.5613
1 113.385 22.4773 19.778
1 113.446 24.9958 19.8001
1 113.376 27.4738 19.9274
1 113.426 30.0578 0.0508279
1 113.487 32.599 0.125079
1 113.465 35.0716 0.100231
1 113.417 37.5727 0.105642
1 113.417 40.1429 0.124428
1 113.395 42.713 0.179959
1 113.324 45.2397 0.199212
1 113.416 47.7493 0.10229
1 113.451 50.2909 -0.0515065
1 117.737 2.14823 19.8971
1 117.806 4.64242 19.6959
1 117.804 7.1535 19.4384
1 117.896 9.72486 19.2412
1 117.835 12.3089 19.1935
1 117.845 14.7794 19.3096
1 117.828 17.3484 19.4285
1 117.712 19.9147 19.4433
1 117.758 22.5029 19.5224
1 117.879 25.0432 19.6914
1 117.809 27.5754 19.8661
1 117.794 30.0546 -0.07548
1 117.81 32.5638 -0.0535906
1 117.845 35.1074 0.00687474
1 117.85 37.586 19.9701
1 117.827 40.1567 -0.0254156
1 117.763 42.751 0.0307665
1 117.781 45.2035 0.0464694
1 117.782 47.7279 0.0832573
1 117.735 50.2752 20.0062
1 122.144 2.16634 19.7381
1 122.184 4.66356 19.6027
1 122.189 7.20009 19.4649
1 122.229 9.69841 19.2123
1 122.177 12.2988 19.0326
1 122.201 14.8362 19.0277
1 122.156 17.4122 19.1132
1 122.171 19.8719 19.161
1 122.157 22.3616 19.1861
1 122.169 24.9107 19.2681
1 122.205 27.5291 19.5775
1 122.231 30.0535 19.8491
1 122.224 32.5801 19.9972
1 122.304 35.1403 19.9455
1 122.21 37.6278 19.8427
1 122.127 40.1682 19.8374
1 122.132 42.735 19.9503
1 122.15 45.2398 -0.075315
1 122.139 47.7766 20.0534
1 122.133 50.2742 19.7277
1 126.487 2.12463 19.6411
1 126.569 4.64902 19.3107
1 126.548 7.1955 19.2319
1 126.511 9.72179 19.0492
1 126.594 12.213 19.0647
1 126.553 14.7773 19.0833
1 126.555 17.3633 18.9513
1 126.552 19.9059 18.9812
1 126.548 22.425 18.9995
1 126.553 24.9932 19.0435
1 126.569 27.4603 19.1977
1 126.526 30.0247 19.5012
1 126.569 32.6001 19.7362
1 126.599 35.1428 20.0169
1 126.579 37.736 20.0416
1 126.548 40.2731 -0.0807324
1 126.55 42.6884 19.9674
1 126.565 45.222 19.9005
1 126.541 47.7788 19.8677
1 126.57 50.313 19.8788
1 130.972 2.18386 19.7463
1 130.888 4.6384 19.3366
1 130.904 7.18918 19.1483
1 130.92 9.7059 19.1195
1 130.955 12.2382 18.9938
1 130.881 14.7627 19.0239
1 130.894 17.344 19.1737
1 130.917 19.9149 19.1632
1 130.865 22.4693 19.1077
1 130.924 25.0754 19.0109
1 130.925 27.5695 19.0863
1 130.937 30.0792 19.2776
1 130.898 32.6548 19.3551
1 130.983 35.1505 19.3838
1 130.935 37.6694 19.4738
1 131.019 40.1697 19.666
1 130.948 42.6972 19.6943
1 130.982 45.2075 19.6759
1 130.958 47.785 19.6879
1 130.892 50.3365 19.697
1 135.302 2.18252 19.4967
1 135.322 4.69196 19.2591
1 135.301 7.23207 19.1302
1 135.317 9.72061 19.1668
1 135.329 12.2399 19.0509
1 135.339 14.788 18.9838
1 135.325 17.3354 19.1552
1 135.424 19.8888 19.2799
1 135.34 22.4346 19.1356
1 135.328 25.0133 19.0327
1 135.243 27.5847 18.9957
1 135.316 30.0766 19.0919
1 135.272 32.6254 19.1592
1 135.319 35.2387 19.104
1 135.352 37.6742 19.188
1 135.379 40.1672 19.4291
1 135.39 42.6775 19.5032
1 135.286 45.2819 19.6455
1 135.326 47.8546 19.6747
1 135.338 50.3566 19.6569
1 139.745 2.16639 19.2708
1 139.7 4.72878 19.2496
1 139.695 7.24304 19.172
1 139.724 9.73967 19.0561
1 139.696 12.2429 19.0324
1 139.731 14.8353 19.0316
1 139.699 17.4014 18.9074
1 139.715 19.8643 18.9818
1 139.721 22.4499 19.0176
1 139.738 24.9598 18.9285
1 139.688 27.5319 18.7216
1 139.677 30.0909 18.9005
1 139.757 32.5839 19.1109
1 139.732 35.0688 19.3599
1 139.771 37.6706 19.336
1 139.789 40.1989 19.2694
1 139.748 42.7642 19.2375
1 139.698 45.2669 19.2466
1 139.691 47.8068 19.3103
1 139.702 50.3142 19.4317
1 144.122 2.26462 19.1909
1 144.171 4.79712 18.9977
1 144.034 7.31657 19.1971
1 144.116 9.86578 19.044
1 144.134 12.3933 18.817
1 144.159 14.8723 18.7396
1 144.105 17.3322 18.6109
1 144.208 19.9354 18.6933
1 144.108 22.4797 18.8278
1 144.163 25.0465 18.9578
1 144.058 27.5568 18.7903
1 144.039 30.0394 18.9203
1 144.112 32.5657 18.9883
1 144.093 35.1044 19.3369
1 144.133 37.7045 19.376
1 144.134 40.1094 19.07
1 144.158 42.7166 19.1194
1 144.134 45.2432 19.087
1 144.037 47.7707 19.1184
1 144.09 50.3887 19.2033
1 148.48 2.24866 19.2668
1 148.443 4.8052 19.298
1 148.507 7.31494 19.1425
1 148.499 9.82446 18.9917
1 148.51 12.3346 18.9026
1 148.547 14.8301 18.8121
1 148.504 17.3108 18.7309
1 148.496 19.9168 18.7158
1 148.515 22.4285 18.7486
1 148.521 24.974 18.827
1 148.532 27.5097 18.8098
1 148.514 30.0209 19.0326
1 148.537 32.5555 19.2283
1 148.468 35.081 19.2664
1 148.501 37.597 19.2462
1 148.546 40.2042 19.2078
1 148.526 42.6709 19.1423
1 148.568 45.2945 19.1217
1 148.458 47.7525 19.0621
1 148.464 50.3282 19.1519
1 152.838 2.20064 19.0202
1 152.845 4.72181 19.0934
1 152.966 7.25754 19.126
1 152.905 9.78948 19.0825
1 152.97 12.2608 18.8202
1 152.963 14.7946 18.6143
1 152.936 17.3792 18.7169
1 152.906 19.8518 18.7785
1 152.868 22.3838 18.8009
1 152.88 24.9175 18.959
1 152.867 27.4619 19.1668
1 152.902 29.9848 19.1186
1 152.852 32.577 19.1913
1 152.935 35.1024 19.2645
1 152.892 37.6825 19.3682
1 152.873 40.2112 19.1987
1 152.872 42.7387 19.045
1 152.825 45.298 19.2182
1 152.861 47.812 19.188
1 152.83 50.3457 19.0789
1 157.262 2.212 19.4619
1 157.275 4.67511 19.4334
1 157.357 7.24108 19.3763
1 157.356 9.71576 19.1388
1 157.339 12.3089 18.9915
1 157.316 14.8525 18.8565
1 157.322 17.3891 18.7304
1 157.355 19.9502 18.8548
1 157.361 22.3904 18.893
1 157.335 24.9574 18.9136
1 157.322 27.4501 19.013
1 157.283 29.9689 19.1513
1 157.286 32.5837 19.4118
1 157.313 35.2085 19.4628
1 157.348 37.7113 19.403
1 157.32 40.2392 19.0325
1 157.273 42.7213 19.0334
1 157.258 45.1983 19.2746
1 157.263 47.8544 19.258
1 157.293 50.3492 19.3316
1 161.658 2.19179 19.4444
1 161.687 4.70848 19.6101
1 161.743 7.20399 19.6676
1 161.687 9.81933 19.6705
1 161.737 12.3498 19.5082
1 161.743 14.8748 19.2941
1 161.724 17.3946 19.3463
1 161.683 19.889 19.3155
1 161.793 22.3451 19.3193
1 161.682 24.8857 19.1142
1 161.706 27.4747 19.2001
1 161.64 30.035 19.4141
1 161.639 32.5561 19.5574
1 161.728 35.0656 19.4705
1 161.751 37.6058 19.1938
1 161.693 40.1764 19.2131
1 161.661 42.7284 19.1587
1 161.639 45.2728 19.1756
1 161.653 47.8059 19.1508
1 161.653 50.3414 19.218
1 166.093 2.19262 19.6444
1 166.035 4.67671 19.719
1 166.034 7.20692 19.993
1 166.022 9.73448 -0.0612671
1 166.043 12.3357 19.9898
1 166.07 14.8523 19.6813
1 166.136 17.35 19.555
1 166.083 19.8848 19.3877
1 166.078 22.4117 19.2673
1 166.109 24.9511 19.2464
1 166.115 27.5138 19.3984
1 166.053 30.0446 19.5258
1 166.059 32.5346 19.4986
1 166.035 35.1446 19.4531
1 166.069 37.6873 19.2878
1 166.109 40.2214 19.1602
1 166.07 42.7201 19.1397
1 166.05 45.2703 19.2058
1 166.034 47.7871 19.261
1 166.121 50.3527 19.4319
1 170.384 2.18211 19.745
1 170.494 4.70294 19.8806
1 170.344 7.21246 19.9636
1 170.406 9.8001 0.1269
1 170.412 12.3476 0.0766689
1 170.406 14.8169 19.8444
1 170.492 17.361 19.3922
1 170.512 19.9001 19.3445
1 170.467 22.4371 19.5873
1 170.449 24.9574 19.4718
1 170.475 27.5255 19.3256
1 170.546 30.1189 19.3576
1 170.507 32.5735 19.4659
1 170.48 35.1247 19.3764
1 170.485 37.618 19.3593
1 170.485 40.1796 19.466
1 170.453 42.7124 19.4145
1 170.427 45.2 19.3628
1 170.454 47.797 19.4627
1 170.416 50.3567 19.6419
1 174.818 2.21052 19.9157
1 174.797 4.74388 20.0738
1 174.838 7.3023 -0.015651
1 174.796 9.7324 0.0908558
1 174.787 12.2794 0.128339
1 174.83 14.8568 -0.0608438
1 174.827 17.3513 19.9185
1 174.844 19.9286 19.8156
1 174.881 22.4486 19.8125
1 174.826 25.0513 19.8422
1 174.845 27.5298 19.8155
1 174.856 30.0739 19.6783
1 174.865 32.6318 19.7481
1 174.858 35.0869 19.6288
1 174.828 37.531 19.4583
1 174.802 40.0771 19.4434
1 174.851 42.6545 19.3661
1 174.839 45.2075 19.4764
1 174.767 47.8312 19.6097
1 174.855 50.3459 19.7563
1 179.244 2.12418 0.068742
1 179.266 4.71357 -0.0150873
1 179.198 7.27289 0.0190222
1 179.215 9.80423 0.0238862
1 179.144 12.3146 20.065
1 179.243 14.8977 0.0205076
1 179.206 17.4184 -0.0463641
1 179.148 19.9751 0.0393724
1 179.244 22.452 0.0596265
1 179.193 25.0137 20.0569
1 179.244 27.5414 20.0758
1 179.266 30.05 20.0324
1 179.255 32.5487 19.9508
1 179.214 35.091 19.8028
1 179.196 37.6366 19.5898
1 179.175 40.1185 19.4393
1 179.2 42.6938 19.4614
1 179.218 45.2677 19.4058
1 179.246 47.7685 19.5857
1 179.216 50.3237 19.9918
1 183.619 2.19914 20.0771
1 183.68 4.76544 0.0237074
1 183.602 7.27769 -0.039423
1 183.6 9.80159 0.0335882
1 183.599 12.3209 -0.0597736
1 183.642 14.8682 20.0408
1 183.634 17.3388 0.0476653
1 183.592 19.9114 0.187297
1 183.62 22.4687 0.255035
1 183.643 25.0854 0.0343053
1 183.568 27.5629 20.0496
1 183.652 30.1468 19.8495
1 183.602 32.6403 19.5081
1 183.608 35.1755 19.2759
1 183.643 37.7363 19.1706
1 183.498 40.2688 19.083
1 183.572 42.7845 19.3292
1 183.644 45.327 19.4673
1 183.612 47.8567 19.728
1 183.616 50.346 20.0554
1 187.99 2.28349 20.0102
1 188.12 4.74461 0.0448003
1 188.019 7.26568 0.128467
1 188.044 9.83306 0.136566
1 187.991 12.3204 0.191031
1 187.983 14.8843 0.0936659
1 187.978 17.411 0.190668
1 187.969 19.985 0.309527
1 187.989 22.5731 0.28107
1 188.023 25.0824 0.151883
1 187.911 27.6163 -0.063808
1 187.95 30.1357 19.7842
1 187.997 32.6416 19.4017
1 187.969 35.1648 19.2099
1 187.955 37.6808 19.1701
1 187.928 40.1765 19.0561
1 188.037 42.7722 19.1883
1 187.999 45.3077 19.3205
1 187.963 47.8294 19.5919
1 188.01 50.3795 19.7629
1 192.414 2.17258 19.3119
1 192.455 4.6308 19.6036
1 192.377 7.23845 19.6395
1 192.324 9.79652 19.7628
1 192.333 12.3521 20.025
1 192.353 14.933 0.0641249
1 192.33 17.4741 0.199851
1 192.34 19.974 0.0573024
1 192.316 22.5589 -0.0203802
1 192.365 25.0498 19.9684
1 192.365 27.5468 19.7774
1 192.363 30.0579 19.4988
1 192.401 32.6213 19.255
1 192.354 35.203 19.0642
1 192.368 37.7524 18.9458
1 192.435 40.2497 18.9549
1 192.369 42.7468 19.1445
1 192.443 45.2075 19.174
1 192.284 47.8132 19.2684
1 192.425 50.2928 19.1527
1 196.795 2.19323 18.9098
1 196.76 4.7749 19.1189
1 196.741 7.30368 19.4835
1 196.782 9.87845 19.7255
1 196.675 12.4038 20.0064
1 196.782 14.867 0.001157
1 196.77 17.445 -0.0687752
1 196.739 19.9607 20.0155
1 196.692 22.5306 19.7628
1 196.797 25.0616 19.7084
1 196.762 27.5458 19.5426
1 196.707 30.0954 19.4995
1 196.747 32.6271 19.3561
1 196.743 35.1119 19.1226
1 196.804 37.6569 19.0275
1 196.81 40.235 19.0038
1 196.807 42.7127 18.9391
1 196.777 45.2552 18.8922
1 196.794 47.8079 18.8436
1 196.782 50.3068 18.8525
1 201.176 2.20304 19.2042
1 201.151 4.7886 19.4734
1 201.108 7.32668 19.5418
1 201.126 9.85177 19.7691
1 201.096 12.3658 20.0386
1 201.203 14.8533 0.10944
1 201.159 17.4744 0.0417407
1 201.149 19.9962 20.0544
1 201.126 22.5003 19.9212
1 201.098 25.0517 19.8517
1 201.099 27.5937 19.7382
1 201.164 30.0917 19.7679
1 201.103 32.6481 19.6867
1 201.106 35.1343 19.5281
1 201.144 37.7153 19.277
1 201.223 40.2672 19.0695
1 201.272 42.806 19.1667
1 201.192 45.3812 19.0721
1 201.266 47.8706 18.8672
1 201.215 50.3773 18.9168
1 205.544 2.25308 19.4152
1 205.547 4.82985 19.7328
1 205.464 7.34447 19.9142
1 205.545 9.88726 -0.0387721
1 205.54 12.3551 0.050621
1 205.513 14.8877 0.0116549
1 205.541 17.4095 -0.0787085
1 205.578 19.9452 0.0262257
1 205.515 22.5566 0.147926
1 205.495 25.0324 0.0030732
1 205.479 27.5656 20.0385
1 205.538 30.1416 20.0117
1 205.517 32.6048 19.9167
1 205.532 35.1492 19.72
1 205.488 37.6619 19.5399
1 205.508 40.2428 19.4385
1 205.599 42.79 19.4532
1 205.606 45.3288 19.2241
1 205.595 47.8732 19.2605
1 205.549 50.3952 19.2977
1 209.952 2.2723 19.6058
1 209.94 4.8136 -0.0587486
1 209.915 7.3339 -0.0307085
1 209.932 9.86488 20.0544
1 209.863 12.382 20.003
1 209.922 14.9789 19.9519
1 209.899 17.5466 19.9088
1 209.963 20.0296 19.9963
1 209.933 22.6037 -0.0151544
1 209.924 24.9981 19.9607
1 209.917 27.5821 20.0185
1 209.887 30.108 19.9891
1 209.986 32.589 19.9023
1 209.896 35.1211 19.9705
1 209.971 37.6646 19.7801
1 209.928 40.2573 19.7425
1 210.04 42.7312 19.6009
1 210.003 45.3729 19.4898
1 209.943 47.8867 19.4218
1 209.918 50.388 19.4788
1 214.265 2.34123 19.8808
1 214.344 4.87264 20.0505
1 214.337 7.33047 -0.0191383
1 214.347 9.88339 20.0658
1 214.342 12.441 -0.0249169
1 214.233 14.8932 19.8806
1 214.346 17.4449 19.9141
1 214.272 19.9564 -0.0247282
1 214.345 22.49 0.0486317
1 214.389 25.115 -0.0163896
1 214.334 27.636 20.0324
1 214.326 30.1123 -0.0817788
1 214.32 32.6798 20.0565
1 214.269 35.2361 20.0438
1 214.29 37.6647 19.9149
1 214.297 40.2334 19.8644
1 214.325 42.7841 19.8389
1 214.301 45.3338 19.7179
1 214.309 47.861 19.7836
1 214.305 50.4405 19.7623
1 218.686 2.24321 20.043
1 218.723 4.8239 -0.0108187
1 218.739 7.38872 0.0656555
1 218.719 9.84209 0.0868508
1 218.706 12.3961 20.0782
1 218.687 14.9214 20.0491
1 218.737 17.5236 0.095457
1 218.694 20.0159 0.223585
1 218.793 22.5646 0.414436
1 218.735 25.046 0.235328
1 218.794 27.6022 0.275292
1 218.741 30.1268 0.151911
1 218.71 32.6344 0.0458985
1 218.673 35.1899 -0.00040244
1 218.681 37.7422 20.0318
1 218.652 40.2083 -0.0262509
1 218.682 42.8219 20.0396
1 218.7 45.3339 19.7975
1 218.726 47.9002 19.6948
1 218.71 50.3813 19.8158
1 223.027 2.24844 0.361359
1 223.09 4.81194 0.14169
1 223.085 7.39389 0.136088
1 223.171 9.88909 0.187038
1 223.163 12.367 0.116483
1 223.144 14.9225 0.128261
1 223.11 17.4177 0.179217
1 223.112 19.9739 0.152191
1 223.14 22.4948 0.0165073
1 223.139 25.0465 -0.00749722
1 223.14 27.5671 20.0273
1 223.116 30.0864 19.9643
1 223.096 32.6351 19.9992
1 223.076 35.141 0.0428092
1 223.058 37.6368 0.0312077
1 223.043 40.2208 0.0152049
1 223.052 42.7524 0.0479905
1 223.074 45.3069 0.089342
1 223.081 47.79 0.0649697
1 223.023 50.3386 0.155383
1 227.398 2.21093 0.511947
1 227.435 4.81678 0.474447
1 227.464 7.33196 0.237965
1 227.468 9.87719 0.108662
1 227.534 12.4136 0.161966
1 227.47 14.9527 0.411757
1 227.477 17.4814 0.188321
1 227.481 20.0376 -0.0200075
1 227.45 22.5277 19.8434
1 227.564 25.0309 19.6791
1 227.47 27.5864 19.6682
1 227.464 30.0686 19.7819
1 227.516 32.609 19.8607
1 227.501 35.181 19.9027
1 227.454 37.6668 20.0392
1 227.457 40.218 20.0754
1 227.458 42.7817 0.221589
1 227.456 45.2923 0.305324
1 227.453 47.7964 0.444546
1 227.457 50.402 0.428387
1 231.807 2.21195 0.443836
1 231.793 4.78689 0.583665
1 231.873 7.31777 0.413012
1 231.882 9.85271 0.326169
1 231.83 12.4364 0.460066
1 231.856 14.9688 0.434792
1 231.909 17.5232 0.326183
1 231.897 20.0324 0.0429315
1 231.869 22.5502 20.0001
1 231.874 25.1742 19.9256
1 231.897 27.6817 19.8136
1 231.92 30.213 19.8206
1 231.932 32.6952 19.8076
1 231.906 35.2123 20.0025
1 231.849 37.7466 0.073477
1 231.848 40.2652 0.176681
1 231.831 42.7366 0.29174
1 231.835 45.2991 0.531483
1 231.844 47.8658 0.540352
1 231.838 50.3862 0.478806
1 236.25 2.27612 0.518805
1 236.185 4.81832 0.50872
1 236.167 7.31631 0.375711
1 236.19 9.89544 0.253736
1 236.225 12.3878 0.285276
1 236.228 14.999 0.162207
1 236.276 17.5384 0.0509677
1 236.237 20.0522 0.0910742
1 236.206 22.5718 -0.0239756
1 236.258 25.0561 19.9767
1 236.259 27.6325 19.8912
1 236.338 30.1561 19.8864
1 236.234 32.6455 0.0372864
1 236.321 35.2351 0.262943
1 236.278 37.7363 0.360238
1 236.201 40.2311 0.394348
1 236.145 42.8052 0.430344
1 236.171 45.3495 0.548237
1 236.154 47.8952 0.553734
1 236.263 50.4168 0.521533
1 240.592 2.32886 0.379978
1 240.581 4.8722 0.337303
1 240.601 7.41048 0.348761
1 240.593 9.90986 0.39922
1 240.643 12.4643 0.273204
1 240.586 14.9715 0.201625
1 240.646 17.4888 0.0771541
1 240.668 19.9944 -0.0265104
1 240.637 22.6448 0.0870048
1 240.717 25.1841 0.142534
1 240.663 27.6586 -0.0580919
1 240.669 30.1857 -0.0556444
1 240.689 32.755 0.0742257
1 240.684 35.2769 0.195858
1 240.718 37.7669 0.19325
1 240.696 40.3011 0.416577
1 240.573 42.8335 0.432856
1 240.57 45.3159 0.538808
1 240.622 47.8779 0.445862
1 240.596 50.4421 0.544436
1 245.022 2.34558 0.577607
1 245.018 4.82573 0.561502
1 245.011 7.29376 0.528013
1 245.031 9.85927 0.497365
1 245.048 12.373 0.234452
1 245.078 14.9624 0.142669
1 244.974 17.5419 0.253929
1 244.997 20.0418 0.314106
1 245.012 22.5742 0.200918
1 245.055 25.1524 0.0661255
1 245.014 27.7004 -0.0381624
1 245.033 30.1266 19.9145
1 245.087 32.7409 0.00509386
1 245.081 35.274 0.129377
1 245.105 37.7823 0.252315
1 245.024 40.3076 0.568676
1 245.019 42.8064 0.736231
1 244.993 45.3477 0.822541
1 244.932 47.878 0.741278
1 244.961 50.4416 0.510456
1 249.36 2.30292 0.661989
1 249.429 4.91656 0.617563
1 249.362 7.44187 0.571651
1 249.388 9.97473 0.578507